
     Program PWSCF v.6.1 (svn rev. 13369) starts on 30Aug2018 at 11:54:39 

     This program is part of the open-source Quantum ESPRESSO suite
     for quantum simulation of materials; please cite
         "P. Giannozzi et al., J. Phys.:Condens. Matter 21 395502 (2009);
          URL http://www.quantum-espresso.org", 
     in publications or presentations arising from this work. More details at
     http://www.quantum-espresso.org/quote

     Parallel version (MPI), running on    32 processors
     K-points division:     npool     =       2
     R & G space division:  proc/nbgrp/npool/nimage =      16
     Waiting for input...
     Reading input from standard input

     Current dimensions of program PWSCF are:
     Max number of different atomic species (ntypx) = 10
     Max number of k-points (npk) =  40000
     Max angular momentum in pseudopotentials (lmaxx) =  3

     gamma-point specific algorithms are used

     Subspace diagonalization in iterative solution of the eigenvalue problem:
     a serial algorithm will be used

 
     Parallelization info
     --------------------
     sticks:   dense  smooth     PW     G-vecs:    dense   smooth      PW
     Min         626     626    156                71342    71342    8924
     Max         629     629    158                71354    71354    8934
     Sum       10021   10021   2515              1141599  1141599  142855
 


     bravais-lattice index     =            4
     lattice parameter (alat)  =      28.4285  a.u.
     unit-cell volume          =   27996.2197 (a.u.)^3
     number of atoms/cell      =           71
     number of atomic types    =            2
     number of electrons       =       285.00
     number of Kohn-Sham states=          172
     kinetic-energy cutoff     =      45.0000  Ry
     charge density cutoff     =     180.0000  Ry
     convergence threshold     =      1.0E-08
     mixing beta               =       0.7000
     number of iterations used =            8  plain     mixing
     Exchange-correlation      = PBE ( 1  4  3  4 0 0)
     nstep                     =           50


     celldm(1)=  28.428529  celldm(2)=   0.000000  celldm(3)=   1.407037
     celldm(4)=   0.000000  celldm(5)=   0.000000  celldm(6)=   0.000000

     crystal axes: (cart. coord. in units of alat)
               a(1) = (   1.000000   0.000000   0.000000 )  
               a(2) = (  -0.500000   0.866025   0.000000 )  
               a(3) = (   0.000000   0.000000   1.407037 )  

     reciprocal axes: (cart. coord. in units 2 pi/alat)
               b(1) = (  1.000000  0.577350  0.000000 )  
               b(2) = (  0.000000  1.154701  0.000000 )  
               b(3) = (  0.000000  0.000000  0.710713 )  


     PseudoPot. # 1 for B  read from file:
     /home/wufeng//programs/pseudo-ONCV-proj/B_ONCV_PBE-1.0.upf
     MD5 check sum: a9fd2462c33df863cd3ce8a66ea40380
     Pseudo is Norm-conserving, Zval =  3.0
     Generated using ONCVPSP code by D. R. Hamann
     Using radial grid of 1534 points,  4 beta functions with: 
                l(1) =   0
                l(2) =   0
                l(3) =   1
                l(4) =   1

     PseudoPot. # 2 for N  read from file:
     /home/wufeng//programs/pseudo-ONCV-proj/N_ONCV_PBE-1.0.upf
     MD5 check sum: 09890da6b2972017450f7114a6086fad
     Pseudo is Norm-conserving, Zval =  5.0
     Generated using ONCVPSP code by D. R. Hamann
     Using radial grid of 1058 points,  4 beta functions with: 
                l(1) =   0
                l(2) =   0
                l(3) =   1
                l(4) =   1

     atomic species   valence    mass     pseudopotential
        B              3.00    10.81100     B ( 1.00)
        N              5.00    14.00670     N ( 1.00)

     Starting magnetic structure 
     atomic species   magnetization
        B            1.000
        N            0.000

      2 Sym. Ops. (no inversion) found


                                    s                        frac. trans.

      isym =  1     identity                                     

 cryst.   s( 1) = (     1          0          0      )
                  (     0          1          0      )
                  (     0          0          1      )

 cart.    s( 1) = (  1.0000000  0.0000000  0.0000000 )
                  (  0.0000000  1.0000000  0.0000000 )
                  (  0.0000000  0.0000000  1.0000000 )


      isym =  2     inv. 180 deg rotation - cart. axis [0,0,1]   

 cryst.   s( 2) = (     1          0          0      )
                  (     0          1          0      )
                  (     0          0         -1      )

 cart.    s( 2) = (  1.0000000  0.0000000  0.0000000 )
                  (  0.0000000  1.0000000  0.0000000 )
                  (  0.0000000  0.0000000 -1.0000000 )


     point group C_s (m)    
     there are  2 classes
     the character table:

       E     s    
A'     1.00  1.00
A''    1.00 -1.00

     the symmetry operations in each class and the name of the first element:

     E        1
          identity                                               
     s        2
          inv. 180 deg rotation - cart. axis [0,0,1]             

   Cartesian axes

     site n.     atom                  positions (alat units)
         1           B   tau(   1) = (   0.0847220   0.0481792   0.0000000  )
         2           B   tau(   2) = (   0.0016552   0.1915065   0.0000000  )
         3           B   tau(   3) = (  -0.0840700   0.3354423   0.0000000  )
         4           B   tau(   4) = (  -0.1697016   0.4797411   0.0000000  )
         5           B   tau(   5) = (  -0.2531040   0.6239658   0.0000000  )
         6           B   tau(   6) = (  -0.3347998   0.7684562   0.0000000  )
         7           B   tau(   7) = (   0.2505326   0.0503107   0.0000000  )
         8           B   tau(   8) = (   0.1708608   0.1982851   0.0000000  )
         9           B   tau(   9) = (   0.0817536   0.3373414   0.0000000  )
        10           B   tau(  10) = (  -0.0041807   0.4808770   0.0000000  )
        11           B   tau(  11) = (  -0.0868009   0.6252373   0.0000000  )
        12           B   tau(  12) = (  -0.1688315   0.7699815   0.0000000  )
        13           B   tau(  13) = (   0.4160703   0.0489591   0.0000000  )
        14           B   tau(  14) = (   0.3357626   0.1980948   0.0000000  )
        15           B   tau(  15) = (   0.2530533   0.3542664   0.0000000  )
        16           B   tau(  16) = (   0.1598302   0.4828258   0.0000000  )
        17           B   tau(  17) = (   0.0795559   0.6259404   0.0000000  )
        18           B   tau(  18) = (  -0.0022718   0.7698025   0.0000000  )
        19           B   tau(  19) = (   0.5841260   0.0456739   0.0000000  )
        20           B   tau(  20) = (   0.5048228   0.1892082   0.0000000  )
        21           N   tau(  21) = (   0.4225323   0.3312267   0.0000000  )
        22           B   tau(  22) = (   0.3177878   0.4664114   0.0000000  )
        23           B   tau(  23) = (   0.2467774   0.6232065   0.0000000  )
        24           B   tau(  24) = (   0.1655733   0.7678573   0.0000000  )
        25           B   tau(  25) = (   0.7514745   0.0445204   0.0000000  )
        26           B   tau(  26) = (   0.6701564   0.1882279   0.0000000  )
        27           B   tau(  27) = (   0.5866519   0.3309170   0.0000000  )
        28           B   tau(  28) = (   0.4944168   0.4729067   0.0000000  )
        29           B   tau(  29) = (   0.4117915   0.6155950   0.0000000  )
        30           B   tau(  30) = (   0.3330495   0.7654853   0.0000000  )
        31           B   tau(  31) = (   0.9178242   0.0452228   0.0000000  )
        32           B   tau(  32) = (   0.8353019   0.1897246   0.0000000  )
        33           B   tau(  33) = (   0.7505974   0.3339871   0.0000000  )
        34           B   tau(  34) = (   0.6637697   0.4779147   0.0000000  )
        35           B   tau(  35) = (   0.5798156   0.6205987   0.0000000  )
        36           B   tau(  36) = (   0.4987047   0.7652452   0.0000000  )
        37           N   tau(  37) = (   0.0009787   0.0949223   0.0000000  )
        38           N   tau(  38) = (  -0.0821736   0.2389754   0.0000000  )
        39           N   tau(  39) = (  -0.1675411   0.3832907   0.0000000  )
        40           N   tau(  40) = (  -0.2533779   0.5273969   0.0000000  )
        41           N   tau(  41) = (  -0.3367008   0.6711574   0.0000000  )
        42           N   tau(  42) = (  -0.4177577   0.8163131   0.0000000  )
        43           N   tau(  43) = (   0.1683262   0.0996797   0.0000000  )
        44           N   tau(  44) = (   0.0846472   0.2413865   0.0000000  )
        45           N   tau(  45) = (  -0.0021005   0.3846488   0.0000000  )
        46           N   tau(  46) = (  -0.0872100   0.5288166   0.0000000  )
        47           N   tau(  47) = (  -0.1699656   0.6733043   0.0000000  )
        48           N   tau(  48) = (  -0.2514991   0.8187900   0.0000000  )
        49           N   tau(  49) = (   0.3340625   0.1000856   0.0000000  )
        50           N   tau(  50) = (   0.2553988   0.2521242   0.0000000  )
        51           N   tau(  51) = (   0.1628642   0.3873517   0.0000000  )
        52           N   tau(  52) = (   0.0777857   0.5302557   0.0000000  )
        53           N   tau(  53) = (  -0.0035340   0.6738070   0.0000000  )
        54           N   tau(  54) = (  -0.0853517   0.8185159   0.0000000  )
        55           N   tau(  55) = (   0.5011071   0.0941526   0.0000000  )
        56           N   tau(  56) = (   0.4240925   0.2402616   0.0000000  )
        57           N   tau(  57) = (   0.2440068   0.5279339   0.0000000  )
        58           N   tau(  58) = (   0.1639411   0.6722878   0.0000000  )
        59           N   tau(  59) = (   0.0823449   0.8161356   0.0000000  )
        60           N   tau(  60) = (   0.6683817   0.0925339   0.0000000  )
        61           N   tau(  61) = (   0.5876302   0.2358581   0.0000000  )
        62           N   tau(  62) = (   0.5020858   0.3753455   0.0000000  )
        63           N   tau(  63) = (   0.4074201   0.5154810   0.0000000  )
        64           N   tau(  64) = (   0.3313212   0.6686530   0.0000000  )
        65           N   tau(  65) = (   0.2500926   0.8144395   0.0000000  )
        66           N   tau(  66) = (   0.8346960   0.0932962   0.0000000  )
        67           N   tau(  67) = (   0.7521558   0.2376108   0.0000000  )
        68           N   tau(  68) = (   0.6671246   0.3816584   0.0000000  )
        69           N   tau(  69) = (   0.5784688   0.5233399   0.0000000  )
        70           N   tau(  70) = (   0.4959356   0.6671171   0.0000000  )
        71           N   tau(  71) = (   0.4163376   0.8143729   0.0000000  )

   Crystallographic axes

     site n.     atom                  positions (cryst. coord.)
         1           B   tau(   1) = (  0.1125383  0.0556325  0.0000000  )
         2           B   tau(   2) = (  0.1122215  0.2211327  0.0000000  )
         3           B   tau(   3) = (  0.1095977  0.3873354  0.0000000  )
         4           B   tau(   4) = (  0.1072771  0.5539574  0.0000000  )
         5           B   tau(   5) = (  0.1071428  0.7204936  0.0000000  )
         6           B   tau(   6) = (  0.1088686  0.8873368  0.0000000  )
         7           B   tau(   7) = (  0.2795795  0.0580938  0.0000000  )
         8           B   tau(   8) = (  0.2853407  0.2289599  0.0000000  )
         9           B   tau(   9) = (  0.2765177  0.3895283  0.0000000  )
        10           B   tau(  10) = (  0.2734538  0.5552690  0.0000000  )
        11           B   tau(  11) = (  0.2741801  0.7219619  0.0000000  )
        12           B   tau(  12) = (  0.2757175  0.8890980  0.0000000  )
        13           B   tau(  13) = (  0.4443369  0.0565331  0.0000000  )
        14           B   tau(  14) = (  0.4501327  0.2287401  0.0000000  )
        15           B   tau(  15) = (  0.4575891  0.4090717  0.0000000  )
        16           B   tau(  16) = (  0.4385898  0.5575193  0.0000000  )
        17           B   tau(  17) = (  0.4409428  0.7227738  0.0000000  )
        18           B   tau(  18) = (  0.4421738  0.8888913  0.0000000  )
        19           B   tau(  19) = (  0.6104959  0.0527397  0.0000000  )
        20           B   tau(  20) = (  0.6140622  0.2184789  0.0000000  )
        21           N   tau(  21) = (  0.6137662  0.3824676  0.0000000  )
        22           B   tau(  22) = (  0.5870705  0.5385655  0.0000000  )
        23           B   tau(  23) = (  0.6065858  0.7196169  0.0000000  )
        24           B   tau(  24) = (  0.6088959  0.8866452  0.0000000  )
        25           B   tau(  25) = (  0.7771783  0.0514077  0.0000000  )
        26           B   tau(  26) = (  0.7788299  0.2173469  0.0000000  )
        27           B   tau(  27) = (  0.7777069  0.3821100  0.0000000  )
        28           B   tau(  28) = (  0.7674497  0.5460656  0.0000000  )
        29           B   tau(  29) = (  0.7672055  0.7108279  0.0000000  )
        30           B   tau(  30) = (  0.7750026  0.8839062  0.0000000  )
        31           B   tau(  31) = (  0.9439336  0.0522188  0.0000000  )
        32           B   tau(  32) = (  0.9448394  0.2190751  0.0000000  )
        33           B   tau(  33) = (  0.9434249  0.3856551  0.0000000  )
        34           B   tau(  34) = (  0.9396938  0.5518483  0.0000000  )
        35           B   tau(  35) = (  0.9381184  0.7166056  0.0000000  )
        36           B   tau(  36) = (  0.9405192  0.8836290  0.0000000  )
        37           N   tau(  37) = (  0.0557821  0.1096069  0.0000000  )
        38           N   tau(  38) = (  0.0557990  0.2759450  0.0000000  )
        39           N   tau(  39) = (  0.0537519  0.4425860  0.0000000  )
        40           N   tau(  40) = (  0.0511148  0.6089855  0.0000000  )
        41           N   tau(  41) = (  0.0507921  0.7749858  0.0000000  )
        42           N   tau(  42) = (  0.0535408  0.9425971  0.0000000  )
        43           N   tau(  43) = (  0.2258763  0.1151002  0.0000000  )
        44           N   tau(  44) = (  0.2240118  0.2787291  0.0000000  )
        45           N   tau(  45) = (  0.2199766  0.4441542  0.0000000  )
        46           N   tau(  46) = (  0.2181024  0.6106248  0.0000000  )
        47           N   tau(  47) = (  0.2187668  0.7774648  0.0000000  )
        48           N   tau(  48) = (  0.2212295  0.9454572  0.0000000  )
        49           N   tau(  49) = (  0.3918470  0.1155690  0.0000000  )
        50           N   tau(  50) = (  0.4009628  0.2911279  0.0000000  )
        51           N   tau(  51) = (  0.3865018  0.4472752  0.0000000  )
        52           N   tau(  52) = (  0.3839290  0.6122865  0.0000000  )
        53           N   tau(  53) = (  0.3854887  0.7780453  0.0000000  )
        54           N   tau(  54) = (  0.3872187  0.9451407  0.0000000  )
        55           N   tau(  55) = (  0.5554661  0.1087180  0.0000000  )
        56           N   tau(  56) = (  0.5628076  0.2774302  0.0000000  )
        57           N   tau(  57) = (  0.5488096  0.6096056  0.0000000  )
        58           N   tau(  58) = (  0.5520867  0.7762910  0.0000000  )
        59           N   tau(  59) = (  0.5535410  0.9423922  0.0000000  )
        60           N   tau(  60) = (  0.7218061  0.1068490  0.0000000  )
        61           N   tau(  61) = (  0.7238030  0.2723455  0.0000000  )
        62           N   tau(  62) = (  0.7187916  0.4334116  0.0000000  )
        63           N   tau(  63) = (  0.7050332  0.5952262  0.0000000  )
        64           N   tau(  64) = (  0.7173682  0.7720940  0.0000000  )
        65           N   tau(  65) = (  0.7203094  0.9404337  0.0000000  )
        66           N   tau(  66) = (  0.8885606  0.1077291  0.0000000  )
        67           N   tau(  67) = (  0.8893405  0.2743694  0.0000000  )
        68           N   tau(  68) = (  0.8874752  0.4407012  0.0000000  )
        69           N   tau(  69) = (  0.8806192  0.6043009  0.0000000  )
        70           N   tau(  70) = (  0.8810958  0.7703205  0.0000000  )
        71           N   tau(  71) = (  0.8865160  0.9403568  0.0000000  )

     number of k points=     1  Marzari-Vanderbilt smearing, width (Ry)=  0.0010
                       cart. coord. in units 2pi/alat
        k(    1) = (   0.0000000   0.0000000   0.0000000), wk =   1.0000000

                       cryst. coord.
        k(    1) = (   0.0000000   0.0000000   0.0000000), wk =   1.0000000

     Dense  grid:   570800 G-vectors     FFT dimensions: ( 125, 125, 180)

     Estimated max dynamical RAM per process >     150.87MB

     Estimated total allocated dynamical RAM >    4828.00MB
     Generating pointlists ...
     new r_m :   0.0391 (alat units)  1.1113 (a.u.) for type    1
     new r_m :   0.0375 (alat units)  1.0668 (a.u.) for type    2

     Initial potential from superposition of free atoms
     Check: negative starting charge=(component1):   -0.009254
     Check: negative starting charge=(component2):   -0.011957

     starting charge  284.99101, renormalised to  285.00000

     negative rho (up, down):  9.254E-03 1.196E-02
     Starting wfc are  284 randomized atomic wfcs

     total cpu time spent up to now is        4.8 secs

     per-process dynamical memory:   125.9 Mb

     Self-consistent Calculation

     iteration #  1     ecut=    45.00 Ry     beta=0.70
     Davidson diagonalization with overlap
     ethr =  1.00E-02,  avg # of iterations =  3.0

     negative rho (up, down):  2.196E-03 2.934E-03

     total cpu time spent up to now is        8.7 secs

     total energy              =    -912.43758356 Ry
     Harris-Foulkes estimate   =    -917.42742708 Ry
     estimated scf accuracy    <      15.45155330 Ry

     total magnetization       =     3.00 Bohr mag/cell
     absolute magnetization    =    20.33 Bohr mag/cell

     iteration #  2     ecut=    45.00 Ry     beta=0.70
     Davidson diagonalization with overlap
     ethr =  5.42E-03,  avg # of iterations =  3.0

     negative rho (up, down):  1.262E-03 1.523E-03

     total cpu time spent up to now is       12.6 secs

     total energy              =    -916.00260996 Ry
     Harris-Foulkes estimate   =    -921.13878550 Ry
     estimated scf accuracy    <      11.85776285 Ry

     total magnetization       =     1.00 Bohr mag/cell
     absolute magnetization    =    14.09 Bohr mag/cell

     iteration #  3     ecut=    45.00 Ry     beta=0.70
     Davidson diagonalization with overlap
     ethr =  4.16E-03,  avg # of iterations =  4.5

     negative rho (up, down):  9.131E-04 1.071E-03

     total cpu time spent up to now is       16.4 secs

     total energy              =    -917.13751449 Ry
     Harris-Foulkes estimate   =    -919.29532414 Ry
     estimated scf accuracy    <       7.02514806 Ry

     total magnetization       =     3.00 Bohr mag/cell
     absolute magnetization    =    11.49 Bohr mag/cell

     iteration #  4     ecut=    45.00 Ry     beta=0.70
     Davidson diagonalization with overlap
     ethr =  2.46E-03,  avg # of iterations =  5.0

     negative rho (up, down):  3.777E-05 3.739E-05

     total cpu time spent up to now is       19.7 secs

     total energy              =    -919.15973998 Ry
     Harris-Foulkes estimate   =    -919.02016316 Ry
     estimated scf accuracy    <       0.47743189 Ry

     total magnetization       =     1.00 Bohr mag/cell
     absolute magnetization    =     8.57 Bohr mag/cell

     iteration #  5     ecut=    45.00 Ry     beta=0.70
     Davidson diagonalization with overlap
     ethr =  1.68E-04,  avg # of iterations = 12.5

     negative rho (up, down):  7.498E-07 6.768E-07

     total cpu time spent up to now is       25.7 secs

     total energy              =    -919.25371644 Ry
     Harris-Foulkes estimate   =    -919.28202186 Ry
     estimated scf accuracy    <       0.21013948 Ry

     total magnetization       =     1.00 Bohr mag/cell
     absolute magnetization    =     5.10 Bohr mag/cell

     iteration #  6     ecut=    45.00 Ry     beta=0.70
     Davidson diagonalization with overlap
     ethr =  7.37E-05,  avg # of iterations =  3.0

     total cpu time spent up to now is       28.8 secs

     total energy              =    -919.26472924 Ry
     Harris-Foulkes estimate   =    -919.27529986 Ry
     estimated scf accuracy    <       0.08926631 Ry

     total magnetization       =     1.00 Bohr mag/cell
     absolute magnetization    =     4.18 Bohr mag/cell

     iteration #  7     ecut=    45.00 Ry     beta=0.70
     Davidson diagonalization with overlap
     ethr =  3.13E-05,  avg # of iterations =  4.0

     total cpu time spent up to now is       32.9 secs

     total energy              =    -919.28395559 Ry
     Harris-Foulkes estimate   =    -919.28159593 Ry
     estimated scf accuracy    <       0.01293466 Ry

     total magnetization       =     1.00 Bohr mag/cell
     absolute magnetization    =     2.76 Bohr mag/cell

     iteration #  8     ecut=    45.00 Ry     beta=0.70
     Davidson diagonalization with overlap
     ethr =  4.54E-06,  avg # of iterations = 14.5

     total cpu time spent up to now is       38.5 secs

     total energy              =    -919.28834994 Ry
     Harris-Foulkes estimate   =    -919.28729574 Ry
     estimated scf accuracy    <       0.00239157 Ry

     total magnetization       =     1.00 Bohr mag/cell
     absolute magnetization    =     2.02 Bohr mag/cell

     iteration #  9     ecut=    45.00 Ry     beta=0.70
     Davidson diagonalization with overlap
     ethr =  8.39E-07,  avg # of iterations =  3.0

     total cpu time spent up to now is       42.6 secs

     total energy              =    -919.29005381 Ry
     Harris-Foulkes estimate   =    -919.28989323 Ry
     estimated scf accuracy    <       0.00040020 Ry

     total magnetization       =     1.00 Bohr mag/cell
     absolute magnetization    =     1.41 Bohr mag/cell

     iteration # 10     ecut=    45.00 Ry     beta=0.70
     Davidson diagonalization with overlap
     ethr =  1.40E-07,  avg # of iterations =  3.0

     total cpu time spent up to now is       46.7 secs

     total energy              =    -919.29028949 Ry
     Harris-Foulkes estimate   =    -919.29031140 Ry
     estimated scf accuracy    <       0.00015808 Ry

     total magnetization       =     1.00 Bohr mag/cell
     absolute magnetization    =     1.19 Bohr mag/cell

     iteration # 11     ecut=    45.00 Ry     beta=0.70
     Davidson diagonalization with overlap
     ethr =  5.55E-08,  avg # of iterations =  2.0

     total cpu time spent up to now is       50.0 secs

     total energy              =    -919.29030878 Ry
     Harris-Foulkes estimate   =    -919.29031623 Ry
     estimated scf accuracy    <       0.00005046 Ry

     total magnetization       =     1.00 Bohr mag/cell
     absolute magnetization    =     1.15 Bohr mag/cell

     iteration # 12     ecut=    45.00 Ry     beta=0.70
     Davidson diagonalization with overlap
     ethr =  1.77E-08,  avg # of iterations =  3.0

     total cpu time spent up to now is       53.3 secs

     total energy              =    -919.29030954 Ry
     Harris-Foulkes estimate   =    -919.29031609 Ry
     estimated scf accuracy    <       0.00001458 Ry

     total magnetization       =     1.00 Bohr mag/cell
     absolute magnetization    =     1.13 Bohr mag/cell

     iteration # 13     ecut=    45.00 Ry     beta=0.70
     Davidson diagonalization with overlap
     ethr =  5.12E-09,  avg # of iterations =  3.5

     total cpu time spent up to now is       56.8 secs

     total energy              =    -919.29031365 Ry
     Harris-Foulkes estimate   =    -919.29031346 Ry
     estimated scf accuracy    <       0.00000071 Ry

     total magnetization       =     1.00 Bohr mag/cell
     absolute magnetization    =     1.13 Bohr mag/cell

     iteration # 14     ecut=    45.00 Ry     beta=0.70
     Davidson diagonalization with overlap
     ethr =  2.49E-10,  avg # of iterations =  3.0

     total cpu time spent up to now is       61.1 secs

     total energy              =    -919.29031435 Ry
     Harris-Foulkes estimate   =    -919.29031436 Ry
     estimated scf accuracy    <       0.00000014 Ry

     total magnetization       =     1.00 Bohr mag/cell
     absolute magnetization    =     1.12 Bohr mag/cell

     iteration # 15     ecut=    45.00 Ry     beta=0.70
     Davidson diagonalization with overlap
     ethr =  4.77E-11,  avg # of iterations =  3.0

     total cpu time spent up to now is       64.9 secs

     total energy              =    -919.29031441 Ry
     Harris-Foulkes estimate   =    -919.29031440 Ry
     estimated scf accuracy    <       0.00000001 Ry

     total magnetization       =     1.00 Bohr mag/cell
     absolute magnetization    =     1.12 Bohr mag/cell

     iteration # 16     ecut=    45.00 Ry     beta=0.70
     Davidson diagonalization with overlap
     ethr =  5.01E-12,  avg # of iterations =  3.0
 
     Magnetic moment per site:
     atom:    1    charge:    0.8232    magn:    0.0000    constr:    0.0000
     atom:    2    charge:    0.8373    magn:    0.0000    constr:    0.0000
     atom:    3    charge:    0.8484    magn:    0.0000    constr:    0.0000
     atom:    4    charge:    0.8452    magn:    0.0007    constr:    0.0000
     atom:    5    charge:    0.8419    magn:    0.0001    constr:    0.0000
     atom:    6    charge:    0.8335    magn:    0.0000    constr:    0.0000
     atom:    7    charge:    0.8320    magn:    0.0008    constr:    0.0000
     atom:    8    charge:    0.8031    magn:   -0.0001    constr:    0.0000
     atom:    9    charge:    0.8530    magn:    0.0003    constr:    0.0000
     atom:   10    charge:    0.8505    magn:    0.0002    constr:    0.0000
     atom:   11    charge:    0.8436    magn:    0.0002    constr:    0.0000
     atom:   12    charge:    0.8423    magn:    0.0001    constr:    0.0000
     atom:   13    charge:    0.8410    magn:    0.0026    constr:    0.0000
     atom:   14    charge:    0.8196    magn:    0.0134    constr:    0.0000
     atom:   15    charge:    0.7439    magn:    0.0047    constr:    0.0000
     atom:   16    charge:    0.8703    magn:    0.0014    constr:    0.0000
     atom:   17    charge:    0.8504    magn:    0.0002    constr:    0.0000
     atom:   18    charge:    0.8446    magn:    0.0007    constr:    0.0000
     atom:   19    charge:    0.8474    magn:   -0.0000    constr:    0.0000
     atom:   20    charge:    0.8716    magn:    0.0057    constr:    0.0000
     atom:   21    charge:    2.4531    magn:    0.2836    constr:    0.0000
     atom:   22    charge:    0.7434    magn:    0.0047    constr:    0.0000
     atom:   23    charge:    0.8538    magn:    0.0003    constr:    0.0000
     atom:   24    charge:    0.8476    magn:    0.0000    constr:    0.0000
     atom:   25    charge:    0.8459    magn:    0.0002    constr:    0.0000
     atom:   26    charge:    0.8598    magn:    0.0015    constr:    0.0000
     atom:   27    charge:    0.8702    magn:    0.0057    constr:    0.0000
     atom:   28    charge:    0.8212    magn:    0.0134    constr:    0.0000
     atom:   29    charge:    0.8036    magn:   -0.0001    constr:    0.0000
     atom:   30    charge:    0.8381    magn:    0.0000    constr:    0.0000
     atom:   31    charge:    0.8383    magn:    0.0001    constr:    0.0000
     atom:   32    charge:    0.8464    magn:    0.0002    constr:    0.0000
     atom:   33    charge:    0.8495    magn:   -0.0000    constr:    0.0000
     atom:   34    charge:    0.8406    magn:    0.0026    constr:    0.0000
     atom:   35    charge:    0.8300    magn:    0.0009    constr:    0.0000
     atom:   36    charge:    0.8236    magn:    0.0000    constr:    0.0000
     atom:   37    charge:    2.5731    magn:    0.0000    constr:    0.0000
     atom:   38    charge:    2.5710    magn:   -0.0001    constr:    0.0000
     atom:   39    charge:    2.5772    magn:   -0.0003    constr:    0.0000
     atom:   40    charge:    2.5727    magn:    0.0003    constr:    0.0000
     atom:   41    charge:    2.5615    magn:   -0.0000    constr:    0.0000
     atom:   42    charge:    2.5615    magn:    0.0007    constr:    0.0000
     atom:   43    charge:    2.5541    magn:    0.0000    constr:    0.0000
     atom:   44    charge:    2.5766    magn:   -0.0002    constr:    0.0000
     atom:   45    charge:    2.5761    magn:   -0.0002    constr:    0.0000
     atom:   46    charge:    2.5796    magn:   -0.0002    constr:    0.0000
     atom:   47    charge:    2.5734    magn:    0.0009    constr:    0.0000
     atom:   48    charge:    2.5620    magn:   -0.0000    constr:    0.0000
     atom:   49    charge:    2.5531    magn:    0.0016    constr:    0.0000
     atom:   50    charge:    2.5144    magn:   -0.0042    constr:    0.0000
     atom:   51    charge:    2.5885    magn:    0.0001    constr:    0.0000
     atom:   52    charge:    2.5881    magn:    0.0001    constr:    0.0000
     atom:   53    charge:    2.5816    magn:   -0.0002    constr:    0.0000
     atom:   54    charge:    2.5729    magn:    0.0003    constr:    0.0000
     atom:   55    charge:    2.5794    magn:   -0.0001    constr:    0.0000
     atom:   56    charge:    2.5478    magn:    0.0335    constr:    0.0000
     atom:   57    charge:    2.5873    magn:    0.0001    constr:    0.0000
     atom:   58    charge:    2.5858    magn:   -0.0002    constr:    0.0000
     atom:   59    charge:    2.5798    magn:   -0.0003    constr:    0.0000
     atom:   60    charge:    2.5815    magn:    0.0018    constr:    0.0000
     atom:   61    charge:    2.5925    magn:    0.0146    constr:    0.0000
     atom:   62    charge:    2.5524    magn:    0.0336    constr:    0.0000
     atom:   63    charge:    2.5143    magn:   -0.0042    constr:    0.0000
     atom:   64    charge:    2.5711    magn:   -0.0002    constr:    0.0000
     atom:   65    charge:    2.5710    magn:   -0.0001    constr:    0.0000
     atom:   66    charge:    2.5720    magn:    0.0008    constr:    0.0000
     atom:   67    charge:    2.5825    magn:    0.0018    constr:    0.0000
     atom:   68    charge:    2.5876    magn:   -0.0001    constr:    0.0000
     atom:   69    charge:    2.5527    magn:    0.0016    constr:    0.0000
     atom:   70    charge:    2.5553    magn:    0.0000    constr:    0.0000
     atom:   71    charge:    2.5720    magn:    0.0000    constr:    0.0000

     total cpu time spent up to now is       68.5 secs

     End of self-consistent calculation

 ------ SPIN UP ------------


          k = 0.0000 0.0000 0.0000 ( 71428 PWs)   bands (ev):

   -24.4899 -21.8681 -21.5169 -21.4529 -21.3675 -21.3542 -21.3406 -20.8604
   -20.7870 -20.4739 -20.4228 -20.3393 -20.3081 -20.2049 -20.1483 -20.0510
   -19.9499 -19.9428 -19.7642 -19.4341 -19.2120 -19.0953 -19.0272 -19.0144
   -18.9982 -18.9795 -18.9728 -18.9457 -18.9299 -18.8914 -18.8193 -18.7724
   -18.7495 -18.4138 -18.2726 -15.7647 -13.2389 -13.1551 -12.9948 -12.8792
   -12.6735 -12.4297 -12.4040 -12.3446 -12.3221 -12.2951 -12.2870 -12.2242
   -12.2143 -12.1628 -12.0700 -11.9707 -11.7382 -11.4228 -11.3978 -11.3041
   -11.2586 -11.1246 -11.0140 -10.9013 -10.4068 -10.3611 -10.0126  -9.8966
    -9.7914  -9.7451  -9.7448  -9.7341  -9.6739  -9.6451  -9.6229  -9.5858
    -9.5797  -9.5588  -9.5153  -9.4719  -9.4349  -9.2557  -9.1036  -9.0061
    -8.8006  -8.7782  -8.7709  -8.7018  -8.6484  -8.6213  -8.3641  -8.3417
    -8.3027  -8.2774  -8.1761  -8.1332  -8.1103  -8.0917  -8.0539  -8.0040
    -7.8570  -7.8486  -7.7967  -7.7831  -7.6267  -7.6100  -7.5838  -7.5358
    -7.5077  -7.4350  -7.4174  -7.3924  -7.3010  -7.2330  -6.9901  -6.9080
    -6.9026  -6.8396  -6.8394  -6.7567  -6.7179  -6.6291  -6.4808  -6.4781
    -6.4162  -6.3760  -5.9642  -5.7686  -5.6496  -5.6407  -5.5764  -5.3725
    -5.3309  -5.3085  -5.3053  -5.2915  -5.2883  -5.2330  -5.2329  -5.1656
    -5.1646  -5.0707  -5.0576  -4.4033  -4.2326  -3.5480  -2.3245  -0.3445
     0.4368   0.4755   0.4992   0.6055   0.6125   0.8351   1.1145   1.1508
     1.1651   1.2271   1.2327   1.2398   1.2547   1.2556   1.3241   1.3383
     1.3397   1.3602   1.3643   1.3653   1.3811   1.5350   1.5849   1.6907
     1.7848   2.1499   2.1543   2.1710

     occupation numbers 
     1.0000   1.0000   1.0000   1.0000   1.0000   1.0000   1.0000   1.0000
     1.0000   1.0000   1.0000   1.0000   1.0000   1.0000   1.0000   1.0000
     1.0000   1.0000   1.0000   1.0000   1.0000   1.0000   1.0000   1.0000
     1.0000   1.0000   1.0000   1.0000   1.0000   1.0000   1.0000   1.0000
     1.0000   1.0000   1.0000   1.0000   1.0000   1.0000   1.0000   1.0000
     1.0000   1.0000   1.0000   1.0000   1.0000   1.0000   1.0000   1.0000
     1.0000   1.0000   1.0000   1.0000   1.0000   1.0000   1.0000   1.0000
     1.0000   1.0000   1.0000   1.0000   1.0000   1.0000   1.0000   1.0000
     1.0000   1.0000   1.0000   1.0000   1.0000   1.0000   1.0000   1.0000
     1.0000   1.0000   1.0000   1.0000   1.0000   1.0000   1.0000   1.0000
     1.0000   1.0000   1.0000   1.0000   1.0000   1.0000   1.0000   1.0000
     1.0000   1.0000   1.0000   1.0000   1.0000   1.0000   1.0000   1.0000
     1.0000   1.0000   1.0000   1.0000   1.0000   1.0000   1.0000   1.0000
     1.0000   1.0000   1.0000   1.0000   1.0000   1.0000   1.0000   1.0000
     1.0000   1.0000   1.0000   1.0000   1.0000   1.0000   1.0000   1.0000
     1.0000   1.0000   1.0000   1.0000   1.0000   1.0000   1.0000   1.0000
     1.0000   1.0000   1.0000   1.0000   1.0000   1.0000   1.0000   1.0000
     1.0000   1.0000   1.0000   1.0000   1.0000   1.0000   1.0000   0.0000
     0.0000   0.0000   0.0000   0.0000   0.0000   0.0000   0.0000   0.0000
     0.0000   0.0000   0.0000   0.0000   0.0000   0.0000   0.0000   0.0000
     0.0000   0.0000   0.0000   0.0000   0.0000   0.0000   0.0000   0.0000
     0.0000   0.0000   0.0000   0.0000

 ------ SPIN DOWN ----------


          k = 0.0000 0.0000 0.0000 ( 71428 PWs)   bands (ev):

   -24.1541 -21.8631 -21.4952 -21.4470 -21.3629 -21.3414 -21.3368 -20.8466
   -20.7337 -20.4660 -20.4201 -20.3376 -20.3036 -20.1926 -20.1446 -20.0438
   -19.9477 -19.9408 -19.7569 -19.4154 -19.2000 -19.0887 -19.0263 -19.0107
   -18.9961 -18.9784 -18.9710 -18.9449 -18.9297 -18.8900 -18.8189 -18.7729
   -18.7492 -18.4110 -18.2715 -15.4613 -13.2148 -13.1367 -12.9884 -12.8310
   -12.6573 -12.4237 -12.3991 -12.3405 -12.3193 -12.2869 -12.2857 -12.2142
   -12.2072 -12.1607 -12.0649 -11.9601 -11.7280 -11.4100 -11.3893 -11.2909
   -11.2516 -11.1190 -11.0053 -10.8908 -10.3922 -10.3346  -9.9989  -9.8792
    -9.7397  -9.7358  -9.7322  -9.6677  -9.6434  -9.6186  -9.5851  -9.5785
    -9.5575  -9.5129  -9.5117  -9.4693  -9.4336  -9.0930  -9.0709  -9.0011
    -8.7836  -8.7628  -8.7578  -8.6953  -8.6256  -8.5530  -8.3608  -8.3337
    -8.2870  -8.2733  -8.1719  -8.1301  -8.0946  -8.0903  -8.0488  -8.0012
    -7.8550  -7.7918  -7.7798  -7.6893  -7.6228  -7.6083  -7.5819  -7.5337
    -7.4466  -7.4149  -7.4142  -7.3801  -7.2927  -7.2086  -6.9428  -6.9020
    -6.8517  -6.8229  -6.8176  -6.7473  -6.7027  -6.6266  -6.4775  -6.4373
    -6.4139  -6.3728  -5.8342  -5.7664  -5.6368  -5.5247  -5.4619  -5.3539
    -5.3180  -5.3001  -5.2995  -5.2827  -5.2787  -5.2300  -5.2297  -5.1591
    -5.1568  -5.0595  -5.0525  -4.3843  -4.2179  -3.3645  -1.3404  -0.1016
     0.4825   0.5021   0.5068   0.6284   0.6368   0.8880   1.1647   1.1677
     1.1948   1.2496   1.2581   1.2612   1.2860   1.2901   1.3309   1.3418
     1.3498   1.3629   1.3695   1.3819   1.3948   1.5477   1.5976   1.7500
     1.8488   2.1546   2.1581   2.1784

     occupation numbers 
     1.0000   1.0000   1.0000   1.0000   1.0000   1.0000   1.0000   1.0000
     1.0000   1.0000   1.0000   1.0000   1.0000   1.0000   1.0000   1.0000
     1.0000   1.0000   1.0000   1.0000   1.0000   1.0000   1.0000   1.0000
     1.0000   1.0000   1.0000   1.0000   1.0000   1.0000   1.0000   1.0000
     1.0000   1.0000   1.0000   1.0000   1.0000   1.0000   1.0000   1.0000
     1.0000   1.0000   1.0000   1.0000   1.0000   1.0000   1.0000   1.0000
     1.0000   1.0000   1.0000   1.0000   1.0000   1.0000   1.0000   1.0000
     1.0000   1.0000   1.0000   1.0000   1.0000   1.0000   1.0000   1.0000
     1.0000   1.0000   1.0000   1.0000   1.0000   1.0000   1.0000   1.0000
     1.0000   1.0000   1.0000   1.0000   1.0000   1.0000   1.0000   1.0000
     1.0000   1.0000   1.0000   1.0000   1.0000   1.0000   1.0000   1.0000
     1.0000   1.0000   1.0000   1.0000   1.0000   1.0000   1.0000   1.0000
     1.0000   1.0000   1.0000   1.0000   1.0000   1.0000   1.0000   1.0000
     1.0000   1.0000   1.0000   1.0000   1.0000   1.0000   1.0000   1.0000
     1.0000   1.0000   1.0000   1.0000   1.0000   1.0000   1.0000   1.0000
     1.0000   1.0000   1.0000   1.0000   1.0000   1.0000   1.0000   1.0000
     1.0000   1.0000   1.0000   1.0000   1.0000   1.0000   1.0000   1.0000
     1.0000   1.0000   1.0000   1.0000   1.0000   1.0000   0.0000   0.0000
     0.0000   0.0000   0.0000   0.0000   0.0000   0.0000   0.0000   0.0000
     0.0000   0.0000   0.0000   0.0000   0.0000   0.0000   0.0000   0.0000
     0.0000   0.0000   0.0000   0.0000   0.0000   0.0000   0.0000   0.0000
     0.0000   0.0000   0.0000   0.0000

     the Fermi energy is    -1.9698 ev

!    total energy              =    -919.29031442 Ry
     Harris-Foulkes estimate   =    -919.29031442 Ry
     estimated scf accuracy    <          3.6E-09 Ry

     The total energy is the sum of the following terms:

     one-electron contribution =   -8313.19089549 Ry
     hartree contribution      =    4207.85304102 Ry
     xc contribution           =    -262.02275082 Ry
     ewald contribution        =    3448.07029087 Ry
     smearing contrib. (-TS)   =       0.00000000 Ry

     total magnetization       =     1.00 Bohr mag/cell
     absolute magnetization    =     1.12 Bohr mag/cell

     convergence has been achieved in  16 iterations

     Forces acting on atoms (cartesian axes, Ry/au):

     atom    1 type  1   force =    -0.00033450   -0.00015716    0.00000000
     atom    2 type  1   force =     0.00006886    0.00002938    0.00000000
     atom    3 type  1   force =     0.00002394   -0.00006094    0.00000000
     atom    4 type  1   force =     0.00013487   -0.00016514    0.00000000
     atom    5 type  1   force =    -0.00019601   -0.00002190    0.00000000
     atom    6 type  1   force =    -0.00030347    0.00002303    0.00000000
     atom    7 type  1   force =    -0.00005751   -0.00023084    0.00000000
     atom    8 type  1   force =    -0.00029002   -0.00016288    0.00000000
     atom    9 type  1   force =    -0.00037922    0.00010974    0.00000000
     atom   10 type  1   force =    -0.00005266    0.00015087    0.00000000
     atom   11 type  1   force =     0.00026741   -0.00026844    0.00000000
     atom   12 type  1   force =    -0.00015535    0.00000119    0.00000000
     atom   13 type  1   force =    -0.00015660   -0.00042824    0.00000000
     atom   14 type  1   force =    -0.00036467    0.00014383    0.00000000
     atom   15 type  1   force =     0.00191892    0.00115888    0.00000000
     atom   16 type  1   force =    -0.00055680    0.00017825    0.00000000
     atom   17 type  1   force =    -0.00025711   -0.00019205    0.00000000
     atom   18 type  1   force =     0.00016456   -0.00016574    0.00000000
     atom   19 type  1   force =    -0.00002322   -0.00030608    0.00000000
     atom   20 type  1   force =     0.00033643   -0.00044043    0.00000000
     atom   21 type  2   force =    -0.01815743    0.00943529    0.00000000
     atom   22 type  1   force =    -0.00012552   -0.00231770    0.00000000
     atom   23 type  1   force =    -0.00044131    0.00004105    0.00000000
     atom   24 type  1   force =    -0.00000090   -0.00010374    0.00000000
     atom   25 type  1   force =    -0.00024035   -0.00030093    0.00000000
     atom   26 type  1   force =    -0.00011805   -0.00000149    0.00000000
     atom   27 type  1   force =     0.00045544   -0.00021160    0.00000000
     atom   28 type  1   force =    -0.00040307    0.00016289    0.00000000
     atom   29 type  1   force =    -0.00012979    0.00010077    0.00000000
     atom   30 type  1   force =    -0.00009200   -0.00016604    0.00000000
     atom   31 type  1   force =     0.00020393   -0.00017089    0.00000000
     atom   32 type  1   force =     0.00006089    0.00024527    0.00000000
     atom   33 type  1   force =     0.00018450    0.00008508    0.00000000
     atom   34 type  1   force =     0.00020471    0.00008594    0.00000000
     atom   35 type  1   force =     0.00010386    0.00003627    0.00000000
     atom   36 type  1   force =    -0.00014472    0.00031663    0.00000000
     atom   37 type  2   force =     0.00015728   -0.00107758    0.00000000
     atom   38 type  2   force =     0.00039106   -0.00099953    0.00000000
     atom   39 type  2   force =    -0.00002304    0.00002812    0.00000000
     atom   40 type  2   force =     0.00055932   -0.00031759    0.00000000
     atom   41 type  2   force =    -0.00029280   -0.00032250    0.00000000
     atom   42 type  2   force =    -0.00083815   -0.00039583    0.00000000
     atom   43 type  2   force =     0.00035860    0.00024733    0.00000000
     atom   44 type  2   force =     0.00033907   -0.00041768    0.00000000
     atom   45 type  2   force =    -0.00086915   -0.00042060    0.00000000
     atom   46 type  2   force =     0.00026256    0.00181295    0.00000000
     atom   47 type  2   force =     0.00134557    0.00003623    0.00000000
     atom   48 type  2   force =    -0.00067461   -0.00011345    0.00000000
     atom   49 type  2   force =     0.00024744    0.00085735    0.00000000
     atom   50 type  2   force =     0.00037437    0.00316487    0.00000000
     atom   51 type  2   force =     0.00098411    0.00007976    0.00000000
     atom   52 type  2   force =    -0.00037499   -0.00012181    0.00000000
     atom   53 type  2   force =     0.00032344    0.00135667    0.00000000
     atom   54 type  2   force =     0.00124233   -0.00018716    0.00000000
     atom   55 type  2   force =    -0.00004276   -0.00054061    0.00000000
     atom   56 type  2   force =     0.00342863   -0.01478015    0.00000000
     atom   57 type  2   force =     0.00033715    0.00040057    0.00000000
     atom   58 type  2   force =    -0.00064431   -0.00063725    0.00000000
     atom   59 type  2   force =     0.00117257    0.00009453    0.00000000
     atom   60 type  2   force =    -0.00008509    0.00085878    0.00000000
     atom   61 type  2   force =    -0.00020479    0.00082604    0.00000000
     atom   62 type  2   force =     0.01384818    0.00444225    0.00000000
     atom   63 type  2   force =    -0.00163163   -0.00141789    0.00000000
     atom   64 type  2   force =    -0.00015568   -0.00003790    0.00000000
     atom   65 type  2   force =     0.00019404   -0.00034549    0.00000000
     atom   66 type  2   force =    -0.00010796   -0.00076780    0.00000000
     atom   67 type  2   force =    -0.00046854    0.00135148    0.00000000
     atom   68 type  2   force =    -0.00043435    0.00066618    0.00000000
     atom   69 type  2   force =    -0.00041081    0.00015464    0.00000000
     atom   70 type  2   force =     0.00045704    0.00033153    0.00000000
     atom   71 type  2   force =     0.00008785   -0.00024064    0.00000000
     The non-local contrib.  to forces
     atom    1 type  1   force =     0.02542084   -0.01297608    0.00000000
     atom    2 type  1   force =     0.00396982    0.00046237    0.00000000
     atom    3 type  1   force =    -0.00998586   -0.00918252    0.00000000
     atom    4 type  1   force =    -0.00254417   -0.00664793    0.00000000
     atom    5 type  1   force =     0.01114383   -0.00549634    0.00000000
     atom    6 type  1   force =     0.02197258   -0.01262364    0.00000000
     atom    7 type  1   force =     0.02228366   -0.01672027    0.00000000
     atom    8 type  1   force =     0.02836396   -0.01307869    0.00000000
     atom    9 type  1   force =    -0.01758040   -0.00414775    0.00000000
     atom   10 type  1   force =    -0.00067057   -0.00503540    0.00000000
     atom   11 type  1   force =     0.00603894   -0.00355482    0.00000000
     atom   12 type  1   force =     0.01022271   -0.00703998    0.00000000
     atom   13 type  1   force =     0.00335147    0.00286762    0.00000000
     atom   14 type  1   force =     0.04482972   -0.02010768    0.00000000
     atom   15 type  1   force =    -0.07711340   -0.16008523    0.00000000
     atom   16 type  1   force =    -0.01585420    0.00902105    0.00000000
     atom   17 type  1   force =     0.00396881    0.00296896    0.00000000
     atom   18 type  1   force =     0.00459087    0.00561512    0.00000000
     atom   19 type  1   force =     0.00137966    0.01509695    0.00000000
     atom   20 type  1   force =    -0.01998076    0.02164346    0.00000000
     atom   21 type  2   force =     1.94189466   -1.12241445    0.00000000
     atom   22 type  1   force =     0.10024873    0.14702389    0.00000000
     atom   23 type  1   force =    -0.00532887    0.01709839    0.00000000
     atom   24 type  1   force =     0.00296259    0.01332671    0.00000000
     atom   25 type  1   force =     0.00400237    0.00394851    0.00000000
     atom   26 type  1   force =    -0.00541864    0.00332090    0.00000000
     atom   27 type  1   force =    -0.02879848    0.00650214    0.00000000
     atom   28 type  1   force =     0.03971258   -0.02847419    0.00000000
     atom   29 type  1   force =     0.02572494   -0.01789190    0.00000000
     atom   30 type  1   force =     0.00153008   -0.00389290    0.00000000
     atom   31 type  1   force =     0.00955964   -0.00570065    0.00000000
     atom   32 type  1   force =    -0.00151001   -0.00552279    0.00000000
     atom   33 type  1   force =    -0.01236453   -0.00843879    0.00000000
     atom   34 type  1   force =    -0.00070411   -0.00432583    0.00000000
     atom   35 type  1   force =     0.02564734   -0.01089324    0.00000000
     atom   36 type  1   force =     0.02380401   -0.01520156    0.00000000
     atom   37 type  2   force =     0.00802317   -0.00093278    0.00000000
     atom   38 type  2   force =    -0.01004502   -0.00475814    0.00000000
     atom   39 type  2   force =    -0.01393480   -0.01247564    0.00000000
     atom   40 type  2   force =     0.00553378   -0.00835727    0.00000000
     atom   41 type  2   force =     0.02257212   -0.00889530    0.00000000
     atom   42 type  2   force =     0.02514228   -0.01550685    0.00000000
     atom   43 type  2   force =     0.02408325   -0.03494737    0.00000000
     atom   44 type  2   force =    -0.00765736    0.01744215    0.00000000
     atom   45 type  2   force =    -0.01745131    0.00055778    0.00000000
     atom   46 type  2   force =     0.00529617   -0.00555497    0.00000000
     atom   47 type  2   force =     0.01222023   -0.00607803    0.00000000
     atom   48 type  2   force =     0.01798616   -0.01544945    0.00000000
     atom   49 type  2   force =     0.01558921   -0.01062295    0.00000000
     atom   50 type  2   force =     0.01645305   -0.14718778    0.00000000
     atom   51 type  2   force =    -0.08357867    0.09483776    0.00000000
     atom   52 type  2   force =     0.01660272   -0.01040019    0.00000000
     atom   53 type  2   force =     0.01013469    0.00217996    0.00000000
     atom   54 type  2   force =     0.01085209   -0.00036745    0.00000000
     atom   55 type  2   force =     0.01356539    0.05350243    0.00000000
     atom   56 type  2   force =     0.04474008    0.55537605    0.00000000
     atom   57 type  2   force =    -0.12376105    0.02693725    0.00000000
     atom   58 type  2   force =    -0.00998185    0.01237285    0.00000000
     atom   59 type  2   force =     0.00601137    0.01907218    0.00000000
     atom   60 type  2   force =     0.00147976    0.01887409    0.00000000
     atom   61 type  2   force =    -0.04331233    0.02614358    0.00000000
     atom   62 type  2   force =    -0.45993622   -0.31623947    0.00000000
     atom   63 type  2   force =     0.13735552    0.06050196    0.00000000
     atom   64 type  2   force =    -0.01954278   -0.00143182    0.00000000
     atom   65 type  2   force =    -0.00220884    0.01010633    0.00000000
     atom   66 type  2   force =     0.00125439   -0.00185622    0.00000000
     atom   67 type  2   force =    -0.01468889   -0.00755954    0.00000000
     atom   68 type  2   force =    -0.04034354   -0.03805157    0.00000000
     atom   69 type  2   force =     0.01736023   -0.00668716    0.00000000
     atom   70 type  2   force =     0.04297110   -0.00162077    0.00000000
     atom   71 type  2   force =     0.00389305   -0.00712201    0.00000000
     The ionic contribution  to forces
     atom    1 type  1   force =     0.36433226   -0.07993096   -0.00000000
     atom    2 type  1   force =     0.27664491   -0.05961784   -0.00000000
     atom    3 type  1   force =     0.04726783   -0.11104254    0.00000000
     atom    4 type  1   force =    -0.07160004    0.01560440    0.00000000
     atom    5 type  1   force =    -0.04118631    0.04699371   -0.00000000
     atom    6 type  1   force =     0.09201431   -0.05293475   -0.00000000
     atom    7 type  1   force =     0.03641384    0.01283698    0.00000000
     atom    8 type  1   force =     0.67125224    0.17673251    0.00000000
     atom    9 type  1   force =     0.27454761   -0.15854492   -0.00000000
     atom   10 type  1   force =     0.04024799   -0.12420397    0.00000000
     atom   11 type  1   force =    -0.01447608    0.00530566   -0.00000000
     atom   12 type  1   force =    -0.06225172    0.00907544   -0.00000000
     atom   13 type  1   force =    -0.28824367    0.01471731   -0.00000000
     atom   14 type  1   force =    -0.62390577    0.24078280    0.00000000
     atom   15 type  1   force =     2.87151690    0.93099892   -0.00000000
     atom   16 type  1   force =     0.39743234   -0.23160918    0.00000000
     atom   17 type  1   force =     0.13020955    0.02991443   -0.00000000
     atom   18 type  1   force =    -0.04995807    0.05157200   -0.00000000
     atom   19 type  1   force =     0.01773407   -0.01837073   -0.00000000
     atom   20 type  1   force =    -0.14061126   -0.35103580   -0.00000000
     atom   21 type  2   force =    -6.58333613    3.79885910   -0.00000000
     atom   22 type  1   force =     0.63197030   -2.95006933   -0.00000000
     atom   23 type  1   force =     0.27166491   -0.16270104   -0.00000000
     atom   24 type  1   force =     0.12194077    0.02032248   -0.00000000
     atom   25 type  1   force =     0.17704855   -0.09475856   -0.00000000
     atom   26 type  1   force =     0.19534713   -0.11194546   -0.00000000
     atom   27 type  1   force =     0.23385051    0.29581045   -0.00000000
     atom   28 type  1   force =    -0.52215828    0.42501669    0.00000000
     atom   29 type  1   force =     0.18639189   -0.66638284   -0.00000000
     atom   30 type  1   force =     0.18908351   -0.21487144   -0.00000000
     atom   31 type  1   force =     0.24423701   -0.14433501   -0.00000000
     atom   32 type  1   force =     0.17059228   -0.10520189    0.00000000
     atom   33 type  1   force =     0.02187414   -0.00482071   -0.00000000
     atom   34 type  1   force =    -0.15510117    0.24441345   -0.00000000
     atom   35 type  1   force =     0.00753732   -0.03939924   -0.00000000
     atom   36 type  1   force =     0.24987429   -0.27422011    0.00000000
     atom   37 type  2   force =     0.15582884   -0.05353541    0.00000000
     atom   38 type  2   force =     0.27902351   -0.04597879    0.00000000
     atom   39 type  2   force =     0.14618660    0.13371034   -0.00000000
     atom   40 type  2   force =    -0.20401791    0.20001679    0.00000000
     atom   41 type  2   force =    -0.41260888    0.13708184   -0.00000000
     atom   42 type  2   force =    -0.20989142    0.12064786   -0.00000000
     atom   43 type  2   force =    -0.09876066    0.43672482    0.00000000
     atom   44 type  2   force =     0.49329400   -0.17147709    0.00000000
     atom   45 type  2   force =     0.31535742   -0.08390207   -0.00000000
     atom   46 type  2   force =    -0.05296892    0.09676979   -0.00000000
     atom   47 type  2   force =    -0.24642674    0.14374143   -0.00000000
     atom   48 type  2   force =    -0.32730183    0.28226339    0.00000000
     atom   49 type  2   force =    -0.50983292    0.40435629    0.00000000
     atom   50 type  2   force =     0.12670585    1.48425028   -0.00000000
     atom   51 type  2   force =     1.28040620   -0.68822209   -0.00000000
     atom   52 type  2   force =     0.14604864   -0.07971278   -0.00000000
     atom   53 type  2   force =    -0.10603709   -0.00072221   -0.00000000
     atom   54 type  2   force =    -0.27039913    0.07276995    0.00000000
     atom   55 type  2   force =    -0.32986533   -0.33518484    0.00000000
     atom   56 type  2   force =    -1.49582073   -2.26523916    0.00000000
     atom   57 type  2   force =     1.23820942   -0.75985195   -0.00000000
     atom   58 type  2   force =     0.22936402   -0.23288382    0.00000000
     atom   59 type  2   force =    -0.04076160   -0.19313219   -0.00000000
     atom   60 type  2   force =     0.05489580   -0.23484991    0.00000000
     atom   61 type  2   force =     0.29930882   -0.17086336    0.00000000
     atom   62 type  2   force =     1.21824761    2.42768395    0.00000000
     atom   63 type  2   force =    -1.22095537   -0.85272163    0.00000000
     atom   64 type  2   force =     0.39615239   -0.34055912    0.00000000
     atom   65 type  2   force =     0.17662903   -0.21529800    0.00000000
     atom   66 type  2   force =     0.16257107   -0.09775985   -0.00000000
     atom   67 type  2   force =     0.22487298    0.06551656   -0.00000000
     atom   68 type  2   force =     0.12196436    0.45672661    0.00000000
     atom   69 type  2   force =    -0.60407996    0.24461323    0.00000000
     atom   70 type  2   force =    -0.42662876   -0.14046227    0.00000000
     atom   71 type  2   force =     0.12309273   -0.10747655    0.00000000
     The local contribution  to forces
     atom    1 type  1   force =    -0.39003602    0.09282817    0.00000001
     atom    2 type  1   force =    -0.28048958    0.05926031   -0.00000002
     atom    3 type  1   force =    -0.03720444    0.12024621   -0.00000005
     atom    4 type  1   force =     0.07433019   -0.00903919   -0.00000002
     atom    5 type  1   force =     0.02990028   -0.04144160   -0.00000004
     atom    6 type  1   force =    -0.11424108    0.06566409   -0.00000003
     atom    7 type  1   force =    -0.05870013    0.00373005   -0.00000003
     atom    8 type  1   force =    -0.69985745   -0.16373984   -0.00000003
     atom    9 type  1   force =    -0.25729430    0.16288289   -0.00000005
     atom   10 type  1   force =    -0.03957298    0.12947720   -0.00000001
     atom   11 type  1   force =     0.00876054   -0.00194072    0.00000000
     atom   12 type  1   force =     0.05192992   -0.00195109   -0.00000006
     atom   13 type  1   force =     0.28479030   -0.01793507   -0.00000005
     atom   14 type  1   force =     0.57876932   -0.22045109   -0.00000005
     atom   15 type  1   force =    -2.79243279   -0.76967958   -0.00000006
     atom   16 type  1   force =    -0.38208936    0.22285210   -0.00000004
     atom   17 type  1   force =    -0.13438534   -0.03300195   -0.00000001
     atom   18 type  1   force =     0.04558167   -0.05726982   -0.00000004
     atom   19 type  1   force =    -0.01908745    0.00305487   -0.00000003
     atom   20 type  1   force =     0.16098576    0.32902841   -0.00000005
     atom   21 type  2   force =     4.62332137   -2.66696156   -0.00000023
     atom   22 type  1   force =    -0.73229446    2.80081127   -0.00000005
     atom   23 type  1   force =    -0.26672527    0.14572516   -0.00000004
     atom   24 type  1   force =    -0.12485168   -0.03367390   -0.00000002
     atom   25 type  1   force =    -0.18123735    0.09059573   -0.00000004
     atom   26 type  1   force =    -0.18999360    0.10870091   -0.00000007
     atom   27 type  1   force =    -0.20453187   -0.30245999   -0.00000005
     atom   28 type  1   force =     0.48209373   -0.39629280   -0.00000002
     atom   29 type  1   force =    -0.21219642    0.68446687   -0.00000003
     atom   30 type  1   force =    -0.19064718    0.21867791   -0.00000002
     atom   31 type  1   force =    -0.25353698    0.14994278   -0.00000003
     atom   32 type  1   force =    -0.16897372    0.11104550   -0.00000005
     atom   33 type  1   force =    -0.00927548    0.01342292   -0.00000005
     atom   34 type  1   force =     0.15607467   -0.23991826   -0.00000004
     atom   35 type  1   force =    -0.03302305    0.05041613   -0.00000004
     atom   36 type  1   force =    -0.27376974    0.28982151    0.00000000
     atom   37 type  2   force =    -0.16363894    0.05346854    0.00000000
     atom   38 type  2   force =    -0.26852795    0.04980355   -0.00000010
     atom   39 type  2   force =    -0.13223042   -0.12111915   -0.00000006
     atom   40 type  2   force =     0.19909961   -0.19190207   -0.00000007
     atom   41 type  2   force =     0.38979557   -0.12842124   -0.00000011
     atom   42 type  2   force =     0.18396032   -0.10545430    0.00000002
     atom   43 type  2   force =     0.07507485   -0.40147266   -0.00000002
     atom   44 type  2   force =    -0.48526758    0.15368732   -0.00000004
     atom   45 type  2   force =    -0.29872384    0.08301108   -0.00000009
     atom   46 type  2   force =     0.04799141   -0.08931968   -0.00000000
     atom   47 type  2   force =     0.23560828   -0.13754788   -0.00000005
     atom   48 type  2   force =     0.30869063   -0.26684501   -0.00000016
     atom   49 type  2   force =     0.49455459   -0.39281936   -0.00000007
     atom   50 type  2   force =    -0.14272388   -1.33381876   -0.00000006
     atom   51 type  2   force =    -1.19580860    0.59355352   -0.00000013
     atom   52 type  2   force =    -0.16298107    0.09007697   -0.00000007
     atom   53 type  2   force =     0.09627894   -0.00002412   -0.00000002
     atom   54 type  2   force =     0.26084771   -0.07249945   -0.00000018
     atom   55 type  2   force =     0.31631700    0.28120864   -0.00000007
     atom   56 type  2   force =     1.45456794    1.69519061   -0.00000013
     atom   57 type  2   force =    -1.11407819    0.73340946   -0.00000009
     atom   58 type  2   force =    -0.21997853    0.21995141   -0.00000011
     atom   59 type  2   force =     0.03596375    0.17424283   -0.00000007
     atom   60 type  2   force =    -0.05640984    0.21693653   -0.00000011
     atom   61 type  2   force =    -0.25612696    0.14559985   -0.00000008
     atom   62 type  2   force =    -0.74444137   -2.10696386   -0.00000015
     atom   63 type  2   force =     1.08201065    0.79088901   -0.00000007
     atom   64 type  2   force =    -0.37671739    0.34206066   -0.00000006
     atom   65 type  2   force =    -0.17415732    0.20492758   -0.00000008
     atom   66 type  2   force =    -0.16388206    0.09892819   -0.00000013
     atom   67 type  2   force =    -0.21061747   -0.05653852   -0.00000009
     atom   68 type  2   force =    -0.08196942   -0.41793297   -0.00000006
     atom   69 type  2   force =     0.58639556   -0.23767068   -0.00000010
     atom   70 type  2   force =     0.38417783    0.14252736   -0.00000003
     atom   71 type  2   force =    -0.12684267    0.11443633   -0.00000004
     The core correction contribution to forces
     atom    1 type  1   force =     0.00000000    0.00000000    0.00000000
     atom    2 type  1   force =     0.00000000    0.00000000    0.00000000
     atom    3 type  1   force =     0.00000000    0.00000000    0.00000000
     atom    4 type  1   force =     0.00000000    0.00000000    0.00000000
     atom    5 type  1   force =     0.00000000    0.00000000    0.00000000
     atom    6 type  1   force =     0.00000000    0.00000000    0.00000000
     atom    7 type  1   force =     0.00000000    0.00000000    0.00000000
     atom    8 type  1   force =     0.00000000    0.00000000    0.00000000
     atom    9 type  1   force =     0.00000000    0.00000000    0.00000000
     atom   10 type  1   force =     0.00000000    0.00000000    0.00000000
     atom   11 type  1   force =     0.00000000    0.00000000    0.00000000
     atom   12 type  1   force =     0.00000000    0.00000000    0.00000000
     atom   13 type  1   force =     0.00000000    0.00000000    0.00000000
     atom   14 type  1   force =     0.00000000    0.00000000    0.00000000
     atom   15 type  1   force =     0.00000000    0.00000000    0.00000000
     atom   16 type  1   force =     0.00000000    0.00000000    0.00000000
     atom   17 type  1   force =     0.00000000    0.00000000    0.00000000
     atom   18 type  1   force =     0.00000000    0.00000000    0.00000000
     atom   19 type  1   force =     0.00000000    0.00000000    0.00000000
     atom   20 type  1   force =     0.00000000    0.00000000    0.00000000
     atom   21 type  2   force =     0.00000000    0.00000000    0.00000000
     atom   22 type  1   force =     0.00000000    0.00000000    0.00000000
     atom   23 type  1   force =     0.00000000    0.00000000    0.00000000
     atom   24 type  1   force =     0.00000000    0.00000000    0.00000000
     atom   25 type  1   force =     0.00000000    0.00000000    0.00000000
     atom   26 type  1   force =     0.00000000    0.00000000    0.00000000
     atom   27 type  1   force =     0.00000000    0.00000000    0.00000000
     atom   28 type  1   force =     0.00000000    0.00000000    0.00000000
     atom   29 type  1   force =     0.00000000    0.00000000    0.00000000
     atom   30 type  1   force =     0.00000000    0.00000000    0.00000000
     atom   31 type  1   force =     0.00000000    0.00000000    0.00000000
     atom   32 type  1   force =     0.00000000    0.00000000    0.00000000
     atom   33 type  1   force =     0.00000000    0.00000000    0.00000000
     atom   34 type  1   force =     0.00000000    0.00000000    0.00000000
     atom   35 type  1   force =     0.00000000    0.00000000    0.00000000
     atom   36 type  1   force =     0.00000000    0.00000000    0.00000000
     atom   37 type  2   force =     0.00000000    0.00000000    0.00000000
     atom   38 type  2   force =     0.00000000    0.00000000    0.00000000
     atom   39 type  2   force =     0.00000000    0.00000000    0.00000000
     atom   40 type  2   force =     0.00000000    0.00000000    0.00000000
     atom   41 type  2   force =     0.00000000    0.00000000    0.00000000
     atom   42 type  2   force =     0.00000000    0.00000000    0.00000000
     atom   43 type  2   force =     0.00000000    0.00000000    0.00000000
     atom   44 type  2   force =     0.00000000    0.00000000    0.00000000
     atom   45 type  2   force =     0.00000000    0.00000000    0.00000000
     atom   46 type  2   force =     0.00000000    0.00000000    0.00000000
     atom   47 type  2   force =     0.00000000    0.00000000    0.00000000
     atom   48 type  2   force =     0.00000000    0.00000000    0.00000000
     atom   49 type  2   force =     0.00000000    0.00000000    0.00000000
     atom   50 type  2   force =     0.00000000    0.00000000    0.00000000
     atom   51 type  2   force =     0.00000000    0.00000000    0.00000000
     atom   52 type  2   force =     0.00000000    0.00000000    0.00000000
     atom   53 type  2   force =     0.00000000    0.00000000    0.00000000
     atom   54 type  2   force =     0.00000000    0.00000000    0.00000000
     atom   55 type  2   force =     0.00000000    0.00000000    0.00000000
     atom   56 type  2   force =     0.00000000    0.00000000    0.00000000
     atom   57 type  2   force =     0.00000000    0.00000000    0.00000000
     atom   58 type  2   force =     0.00000000    0.00000000    0.00000000
     atom   59 type  2   force =     0.00000000    0.00000000    0.00000000
     atom   60 type  2   force =     0.00000000    0.00000000    0.00000000
     atom   61 type  2   force =     0.00000000    0.00000000    0.00000000
     atom   62 type  2   force =     0.00000000    0.00000000    0.00000000
     atom   63 type  2   force =     0.00000000    0.00000000    0.00000000
     atom   64 type  2   force =     0.00000000    0.00000000    0.00000000
     atom   65 type  2   force =     0.00000000    0.00000000    0.00000000
     atom   66 type  2   force =     0.00000000    0.00000000    0.00000000
     atom   67 type  2   force =     0.00000000    0.00000000    0.00000000
     atom   68 type  2   force =     0.00000000    0.00000000    0.00000000
     atom   69 type  2   force =     0.00000000    0.00000000    0.00000000
     atom   70 type  2   force =     0.00000000    0.00000000    0.00000000
     atom   71 type  2   force =     0.00000000    0.00000000    0.00000000
     The Hubbard contrib.    to forces
     atom    1 type  1   force =     0.00000000    0.00000000    0.00000000
     atom    2 type  1   force =     0.00000000    0.00000000    0.00000000
     atom    3 type  1   force =     0.00000000    0.00000000    0.00000000
     atom    4 type  1   force =     0.00000000    0.00000000    0.00000000
     atom    5 type  1   force =     0.00000000    0.00000000    0.00000000
     atom    6 type  1   force =     0.00000000    0.00000000    0.00000000
     atom    7 type  1   force =     0.00000000    0.00000000    0.00000000
     atom    8 type  1   force =     0.00000000    0.00000000    0.00000000
     atom    9 type  1   force =     0.00000000    0.00000000    0.00000000
     atom   10 type  1   force =     0.00000000    0.00000000    0.00000000
     atom   11 type  1   force =     0.00000000    0.00000000    0.00000000
     atom   12 type  1   force =     0.00000000    0.00000000    0.00000000
     atom   13 type  1   force =     0.00000000    0.00000000    0.00000000
     atom   14 type  1   force =     0.00000000    0.00000000    0.00000000
     atom   15 type  1   force =     0.00000000    0.00000000    0.00000000
     atom   16 type  1   force =     0.00000000    0.00000000    0.00000000
     atom   17 type  1   force =     0.00000000    0.00000000    0.00000000
     atom   18 type  1   force =     0.00000000    0.00000000    0.00000000
     atom   19 type  1   force =     0.00000000    0.00000000    0.00000000
     atom   20 type  1   force =     0.00000000    0.00000000    0.00000000
     atom   21 type  2   force =     0.00000000    0.00000000    0.00000000
     atom   22 type  1   force =     0.00000000    0.00000000    0.00000000
     atom   23 type  1   force =     0.00000000    0.00000000    0.00000000
     atom   24 type  1   force =     0.00000000    0.00000000    0.00000000
     atom   25 type  1   force =     0.00000000    0.00000000    0.00000000
     atom   26 type  1   force =     0.00000000    0.00000000    0.00000000
     atom   27 type  1   force =     0.00000000    0.00000000    0.00000000
     atom   28 type  1   force =     0.00000000    0.00000000    0.00000000
     atom   29 type  1   force =     0.00000000    0.00000000    0.00000000
     atom   30 type  1   force =     0.00000000    0.00000000    0.00000000
     atom   31 type  1   force =     0.00000000    0.00000000    0.00000000
     atom   32 type  1   force =     0.00000000    0.00000000    0.00000000
     atom   33 type  1   force =     0.00000000    0.00000000    0.00000000
     atom   34 type  1   force =     0.00000000    0.00000000    0.00000000
     atom   35 type  1   force =     0.00000000    0.00000000    0.00000000
     atom   36 type  1   force =     0.00000000    0.00000000    0.00000000
     atom   37 type  2   force =     0.00000000    0.00000000    0.00000000
     atom   38 type  2   force =     0.00000000    0.00000000    0.00000000
     atom   39 type  2   force =     0.00000000    0.00000000    0.00000000
     atom   40 type  2   force =     0.00000000    0.00000000    0.00000000
     atom   41 type  2   force =     0.00000000    0.00000000    0.00000000
     atom   42 type  2   force =     0.00000000    0.00000000    0.00000000
     atom   43 type  2   force =     0.00000000    0.00000000    0.00000000
     atom   44 type  2   force =     0.00000000    0.00000000    0.00000000
     atom   45 type  2   force =     0.00000000    0.00000000    0.00000000
     atom   46 type  2   force =     0.00000000    0.00000000    0.00000000
     atom   47 type  2   force =     0.00000000    0.00000000    0.00000000
     atom   48 type  2   force =     0.00000000    0.00000000    0.00000000
     atom   49 type  2   force =     0.00000000    0.00000000    0.00000000
     atom   50 type  2   force =     0.00000000    0.00000000    0.00000000
     atom   51 type  2   force =     0.00000000    0.00000000    0.00000000
     atom   52 type  2   force =     0.00000000    0.00000000    0.00000000
     atom   53 type  2   force =     0.00000000    0.00000000    0.00000000
     atom   54 type  2   force =     0.00000000    0.00000000    0.00000000
     atom   55 type  2   force =     0.00000000    0.00000000    0.00000000
     atom   56 type  2   force =     0.00000000    0.00000000    0.00000000
     atom   57 type  2   force =     0.00000000    0.00000000    0.00000000
     atom   58 type  2   force =     0.00000000    0.00000000    0.00000000
     atom   59 type  2   force =     0.00000000    0.00000000    0.00000000
     atom   60 type  2   force =     0.00000000    0.00000000    0.00000000
     atom   61 type  2   force =     0.00000000    0.00000000    0.00000000
     atom   62 type  2   force =     0.00000000    0.00000000    0.00000000
     atom   63 type  2   force =     0.00000000    0.00000000    0.00000000
     atom   64 type  2   force =     0.00000000    0.00000000    0.00000000
     atom   65 type  2   force =     0.00000000    0.00000000    0.00000000
     atom   66 type  2   force =     0.00000000    0.00000000    0.00000000
     atom   67 type  2   force =     0.00000000    0.00000000    0.00000000
     atom   68 type  2   force =     0.00000000    0.00000000    0.00000000
     atom   69 type  2   force =     0.00000000    0.00000000    0.00000000
     atom   70 type  2   force =     0.00000000    0.00000000    0.00000000
     atom   71 type  2   force =     0.00000000    0.00000000    0.00000000
     The SCF correction term to forces
     atom    1 type  1   force =     0.00000178    0.00000183   -0.00000000
     atom    2 type  1   force =    -0.00000294    0.00000468    0.00000001
     atom    3 type  1   force =    -0.00000024   -0.00000197    0.00000003
     atom    4 type  1   force =     0.00000225   -0.00000230    0.00000001
     atom    5 type  1   force =    -0.00000045    0.00000246    0.00000002
     atom    6 type  1   force =     0.00000408   -0.00000254    0.00000003
     atom    7 type  1   force =    -0.00000152    0.00000253    0.00000003
     atom    8 type  1   force =     0.00000459    0.00000326    0.00000002
     atom    9 type  1   force =     0.00000123   -0.00000036    0.00000004
     atom   10 type  1   force =    -0.00000374   -0.00000684    0.00000001
     atom   11 type  1   force =    -0.00000263    0.00000157    0.00000001
     atom   12 type  1   force =    -0.00000290   -0.00000306    0.00000004
     atom   13 type  1   force =    -0.00000135    0.00000203    0.00000004
     atom   14 type  1   force =    -0.00000459   -0.00000007    0.00000004
     atom   15 type  1   force =     0.00000157    0.00000490    0.00000004
     atom   16 type  1   force =     0.00000778   -0.00000559    0.00000003
     atom   17 type  1   force =     0.00000322    0.00000665    0.00000001
     atom   18 type  1   force =     0.00000345   -0.00000291    0.00000003
     atom   19 type  1   force =     0.00000385   -0.00000705    0.00000003
     atom   20 type  1   force =    -0.00000393    0.00000362    0.00000005
     atom   21 type  2   force =     0.00001603    0.00003233    0.00000016
     atom   22 type  1   force =     0.00000327   -0.00000340    0.00000003
     atom   23 type  1   force =     0.00000129   -0.00000134    0.00000003
     atom   24 type  1   force =     0.00000078    0.00000109    0.00000003
     atom   25 type  1   force =    -0.00000056   -0.00000649    0.00000003
     atom   26 type  1   force =     0.00000041    0.00000228    0.00000005
     atom   27 type  1   force =    -0.00001136    0.00001593    0.00000005
     atom   28 type  1   force =     0.00000226   -0.00000668    0.00000002
     atom   29 type  1   force =     0.00000315   -0.00001123    0.00000002
     atom   30 type  1   force =    -0.00000505    0.00000051    0.00000002
     atom   31 type  1   force =    -0.00000238    0.00000211    0.00000002
     atom   32 type  1   force =     0.00000569    0.00000458    0.00000004
     atom   33 type  1   force =     0.00000374    0.00000179    0.00000003
     atom   34 type  1   force =    -0.00001133   -0.00000329    0.00000003
     atom   35 type  1   force =    -0.00000439   -0.00000726    0.00000002
     atom   36 type  1   force =     0.00000008   -0.00000308    0.00000001
     atom   37 type  2   force =    -0.00000242    0.00000220   -0.00000003
     atom   38 type  2   force =    -0.00000612    0.00001398    0.00000008
     atom   39 type  2   force =     0.00000894   -0.00000729    0.00000005
     atom   40 type  2   force =    -0.00000280    0.00000510    0.00000005
     atom   41 type  2   force =     0.00000174   -0.00000767    0.00000007
     atom   42 type  2   force =     0.00000403   -0.00000242    0.00000000
     atom   43 type  2   force =     0.00001452    0.00002266    0.00000001
     atom   44 type  2   force =     0.00002338    0.00001006    0.00000004
     atom   45 type  2   force =     0.00000194   -0.00000726    0.00000007
     atom   46 type  2   force =    -0.00000273   -0.00000207   -0.00000000
     atom   47 type  2   force =    -0.00000283    0.00000085    0.00000005
     atom   48 type  2   force =     0.00000380   -0.00000225    0.00000012
     atom   49 type  2   force =    -0.00001007    0.00002350    0.00000006
     atom   50 type  2   force =    -0.00000729    0.00000126    0.00000005
     atom   51 type  2   force =     0.00001854   -0.00000931    0.00000008
     atom   52 type  2   force =     0.00000809   -0.00000569    0.00000004
     atom   53 type  2   force =     0.00000027    0.00000318    0.00000003
     atom   54 type  2   force =    -0.00000498   -0.00001008    0.00000012
     atom   55 type  2   force =    -0.00000645    0.00001328    0.00000008
     atom   56 type  2   force =    -0.00000531   -0.00002752    0.00000013
     atom   57 type  2   force =     0.00002034   -0.00001406    0.00000005
     atom   58 type  2   force =     0.00000541    0.00000244    0.00000007
     atom   59 type  2   force =     0.00001241   -0.00000817    0.00000007
     atom   60 type  2   force =     0.00000255   -0.00002180    0.00000009
     atom   61 type  2   force =    -0.00002096    0.00002610    0.00000011
     atom   62 type  2   force =     0.00003153    0.00004175    0.00000012
     atom   63 type  2   force =     0.00001092   -0.00000711    0.00000005
     atom   64 type  2   force =     0.00000545   -0.00002749    0.00000006
     atom   65 type  2   force =    -0.00001547   -0.00000128    0.00000006
     atom   66 type  2   force =     0.00000201    0.00000021    0.00000015
     atom   67 type  2   force =     0.00001819    0.00001311    0.00000010
     atom   68 type  2   force =    -0.00003237    0.00000425    0.00000009
     atom   69 type  2   force =    -0.00003328   -0.00002063    0.00000007
     atom   70 type  2   force =    -0.00000977   -0.00003266    0.00000000
     atom   71 type  2   force =    -0.00000190    0.00000172    0.00000004

     Total force =     0.030226     Total SCF correction =     0.000133

     BFGS Geometry Optimization

     number of scf cycles    =   1
     number of bfgs steps    =   0

     energy   new            =    -919.2903144178 Ry

     new trust radius        =       0.0204625787 bohr
     new conv_thr            =       0.0000000100 Ry


ATOMIC_POSITIONS (angstrom)
B        1.274357942   0.724711652   0.000000000
B        0.024936525   2.880988146   0.000000000
B       -1.264714044   5.046271475   0.000000000
B       -2.552873605   7.217008574   0.000000000
B       -3.807731598   9.386760575   0.000000000
B       -5.036798794  11.560459705   0.000000000
B        3.768914684   0.756738407   0.000000000
B        2.570229733   2.982860534   0.000000000
B        1.229678085   5.074930429   0.000000000
B       -0.062921040   7.234264068   0.000000000
B       -1.305667092   9.405759279   0.000000000
B       -2.539938262  11.583393983   0.000000000
B        6.259166822   0.736301269   0.000000000
B        5.050928932   2.980160028   0.000000000
B        3.807880680   5.330101871   0.000000000
B        2.404147162   7.263595705   0.000000000
B        1.196681565   9.416376979   0.000000000
B       -0.034089710  11.580612428   0.000000000
B        8.787421610   0.686943717   0.000000000
B        7.594595016   2.846164593   0.000000000
N        6.346853640   4.987877793   0.000000000
B        4.780646743   7.015340129   0.000000000
B        3.712218777   9.375371970   0.000000000
B        2.490839778  11.551382438   0.000000000
B       11.304851482   0.669593005   0.000000000
B       10.081589669   2.831649095   0.000000000
B        8.825673471   4.978113438   0.000000000
B        7.437660060   7.114366666   0.000000000
B        6.194811771   9.260898478   0.000000000
B        5.010258366  11.515665293   0.000000000
B       13.807606954   0.680229553   0.000000000
B       12.566087822   2.854295238   0.000000000
B       11.291881237   5.024457262   0.000000000
B        9.985679673   7.189664753   0.000000000
B        8.722643633   9.336137509   0.000000000
B        7.502302323  11.512308823   0.000000000
N        0.014806494   1.427415578   0.000000000
N       -1.235989846   3.594552303   0.000000000
N       -2.520455601   5.766136322   0.000000000
N       -3.811452610   7.933848173   0.000000000
N       -5.065390067  10.096539439   0.000000000
N       -6.285078035  12.280183549   0.000000000
N        2.532443603   1.499685778   0.000000000
N        1.273589526   3.631132347   0.000000000
N       -0.032059583   5.786330196   0.000000000
N       -1.311825206   7.956333450   0.000000000
N       -2.556204685  10.129026671   0.000000000
N       -3.783841384  12.317594835   0.000000000
N        5.025677214   1.506115129   0.000000000
N        3.842349264   3.794562594   0.000000000
N        2.450605915   5.827255773   0.000000000
N        1.169988661   7.976958524   0.000000000
N       -0.052992675  10.137288713   0.000000000
N       -1.283350099  12.313432447   0.000000000
N        7.538497306   1.416119629   0.000000000
N        6.381747872   3.606608983   0.000000000
N        3.670950335   7.942306861   0.000000000
N        2.465945280  10.113378137   0.000000000
N        1.239394955  12.277773017   0.000000000
N       10.054907758   1.392509683   0.000000000
N        8.840041377   3.548623293   0.000000000
N        7.560570940   5.648946460   0.000000000
N        6.128254126   7.754006272   0.000000000
N        4.984224072  10.059014666   0.000000000
N        3.762427938  12.252024354   0.000000000
N       12.556884337   1.403116080   0.000000000
N       11.314981144   3.575268314   0.000000000
N       10.035811957   5.741918960   0.000000000
N        8.702110631   7.873065919   0.000000000
N        7.460962338  10.036105062   0.000000000
N        6.263316737  12.251077624   0.000000000



     Writing output data file BN.save
     Check: negative starting charge=(component1):   -0.019440
[...]
     atom   37 type  2   force =     0.00000000    0.00000000    0.00000000
     atom   38 type  2   force =     0.00000000    0.00000000    0.00000000
     atom   39 type  2   force =     0.00000000    0.00000000    0.00000000
     atom   40 type  2   force =     0.00000000    0.00000000    0.00000000
     atom   41 type  2   force =     0.00000000    0.00000000    0.00000000
     atom   42 type  2   force =     0.00000000    0.00000000    0.00000000
     atom   43 type  2   force =     0.00000000    0.00000000    0.00000000
     atom   44 type  2   force =     0.00000000    0.00000000    0.00000000
     atom   45 type  2   force =     0.00000000    0.00000000    0.00000000
     atom   46 type  2   force =     0.00000000    0.00000000    0.00000000
     atom   47 type  2   force =     0.00000000    0.00000000    0.00000000
     atom   48 type  2   force =     0.00000000    0.00000000    0.00000000
     atom   49 type  2   force =     0.00000000    0.00000000    0.00000000
     atom   50 type  2   force =     0.00000000    0.00000000    0.00000000
     atom   51 type  2   force =     0.00000000    0.00000000    0.00000000
     atom   52 type  2   force =     0.00000000    0.00000000    0.00000000
     atom   53 type  2   force =     0.00000000    0.00000000    0.00000000
     atom   54 type  2   force =     0.00000000    0.00000000    0.00000000
     atom   55 type  2   force =     0.00000000    0.00000000    0.00000000
     atom   56 type  2   force =     0.00000000    0.00000000    0.00000000
     atom   57 type  2   force =     0.00000000    0.00000000    0.00000000
     atom   58 type  2   force =     0.00000000    0.00000000    0.00000000
     atom   59 type  2   force =     0.00000000    0.00000000    0.00000000
     atom   60 type  2   force =     0.00000000    0.00000000    0.00000000
     atom   61 type  2   force =     0.00000000    0.00000000    0.00000000
     atom   62 type  2   force =     0.00000000    0.00000000    0.00000000
     atom   63 type  2   force =     0.00000000    0.00000000    0.00000000
     atom   64 type  2   force =     0.00000000    0.00000000    0.00000000
     atom   65 type  2   force =     0.00000000    0.00000000    0.00000000
     atom   66 type  2   force =     0.00000000    0.00000000    0.00000000
     atom   67 type  2   force =     0.00000000    0.00000000    0.00000000
     atom   68 type  2   force =     0.00000000    0.00000000    0.00000000
     atom   69 type  2   force =     0.00000000    0.00000000    0.00000000
     atom   70 type  2   force =     0.00000000    0.00000000    0.00000000
     atom   71 type  2   force =     0.00000000    0.00000000    0.00000000
     The Hubbard contrib.    to forces
     atom    1 type  1   force =     0.00000000    0.00000000    0.00000000
     atom    2 type  1   force =     0.00000000    0.00000000    0.00000000
     atom    3 type  1   force =     0.00000000    0.00000000    0.00000000
     atom    4 type  1   force =     0.00000000    0.00000000    0.00000000
     atom    5 type  1   force =     0.00000000    0.00000000    0.00000000
     atom    6 type  1   force =     0.00000000    0.00000000    0.00000000
     atom    7 type  1   force =     0.00000000    0.00000000    0.00000000
     atom    8 type  1   force =     0.00000000    0.00000000    0.00000000
     atom    9 type  1   force =     0.00000000    0.00000000    0.00000000
     atom   10 type  1   force =     0.00000000    0.00000000    0.00000000
     atom   11 type  1   force =     0.00000000    0.00000000    0.00000000
     atom   12 type  1   force =     0.00000000    0.00000000    0.00000000
     atom   13 type  1   force =     0.00000000    0.00000000    0.00000000
     atom   14 type  1   force =     0.00000000    0.00000000    0.00000000
     atom   15 type  1   force =     0.00000000    0.00000000    0.00000000
     atom   16 type  1   force =     0.00000000    0.00000000    0.00000000
     atom   17 type  1   force =     0.00000000    0.00000000    0.00000000
     atom   18 type  1   force =     0.00000000    0.00000000    0.00000000
     atom   19 type  1   force =     0.00000000    0.00000000    0.00000000
     atom   20 type  1   force =     0.00000000    0.00000000    0.00000000
     atom   21 type  2   force =     0.00000000    0.00000000    0.00000000
     atom   22 type  1   force =     0.00000000    0.00000000    0.00000000
     atom   23 type  1   force =     0.00000000    0.00000000    0.00000000
     atom   24 type  1   force =     0.00000000    0.00000000    0.00000000
     atom   25 type  1   force =     0.00000000    0.00000000    0.00000000
     atom   26 type  1   force =     0.00000000    0.00000000    0.00000000
     atom   27 type  1   force =     0.00000000    0.00000000    0.00000000
     atom   28 type  1   force =     0.00000000    0.00000000    0.00000000
     atom   29 type  1   force =     0.00000000    0.00000000    0.00000000
     atom   30 type  1   force =     0.00000000    0.00000000    0.00000000
     atom   31 type  1   force =     0.00000000    0.00000000    0.00000000
     atom   32 type  1   force =     0.00000000    0.00000000    0.00000000
     atom   33 type  1   force =     0.00000000    0.00000000    0.00000000
     atom   34 type  1   force =     0.00000000    0.00000000    0.00000000
     atom   35 type  1   force =     0.00000000    0.00000000    0.00000000
     atom   36 type  1   force =     0.00000000    0.00000000    0.00000000
     atom   37 type  2   force =     0.00000000    0.00000000    0.00000000
     atom   38 type  2   force =     0.00000000    0.00000000    0.00000000
     atom   39 type  2   force =     0.00000000    0.00000000    0.00000000
     atom   40 type  2   force =     0.00000000    0.00000000    0.00000000
     atom   41 type  2   force =     0.00000000    0.00000000    0.00000000
     atom   42 type  2   force =     0.00000000    0.00000000    0.00000000
     atom   43 type  2   force =     0.00000000    0.00000000    0.00000000
     atom   44 type  2   force =     0.00000000    0.00000000    0.00000000
     atom   45 type  2   force =     0.00000000    0.00000000    0.00000000
     atom   46 type  2   force =     0.00000000    0.00000000    0.00000000
     atom   47 type  2   force =     0.00000000    0.00000000    0.00000000
     atom   48 type  2   force =     0.00000000    0.00000000    0.00000000
     atom   49 type  2   force =     0.00000000    0.00000000    0.00000000
     atom   50 type  2   force =     0.00000000    0.00000000    0.00000000
     atom   51 type  2   force =     0.00000000    0.00000000    0.00000000
     atom   52 type  2   force =     0.00000000    0.00000000    0.00000000
     atom   53 type  2   force =     0.00000000    0.00000000    0.00000000
     atom   54 type  2   force =     0.00000000    0.00000000    0.00000000
     atom   55 type  2   force =     0.00000000    0.00000000    0.00000000
     atom   56 type  2   force =     0.00000000    0.00000000    0.00000000
     atom   57 type  2   force =     0.00000000    0.00000000    0.00000000
     atom   58 type  2   force =     0.00000000    0.00000000    0.00000000
     atom   59 type  2   force =     0.00000000    0.00000000    0.00000000
     atom   60 type  2   force =     0.00000000    0.00000000    0.00000000
     atom   61 type  2   force =     0.00000000    0.00000000    0.00000000
     atom   62 type  2   force =     0.00000000    0.00000000    0.00000000
     atom   63 type  2   force =     0.00000000    0.00000000    0.00000000
     atom   64 type  2   force =     0.00000000    0.00000000    0.00000000
     atom   65 type  2   force =     0.00000000    0.00000000    0.00000000
     atom   66 type  2   force =     0.00000000    0.00000000    0.00000000
     atom   67 type  2   force =     0.00000000    0.00000000    0.00000000
     atom   68 type  2   force =     0.00000000    0.00000000    0.00000000
     atom   69 type  2   force =     0.00000000    0.00000000    0.00000000
     atom   70 type  2   force =     0.00000000    0.00000000    0.00000000
     atom   71 type  2   force =     0.00000000    0.00000000    0.00000000
     The SCF correction term to forces
     atom    1 type  1   force =     0.00000069   -0.00000008   -0.00000000
     atom    2 type  1   force =     0.00000024    0.00000028   -0.00000000
     atom    3 type  1   force =     0.00000032   -0.00000021   -0.00000000
     atom    4 type  1   force =     0.00000086    0.00000031   -0.00000000
     atom    5 type  1   force =     0.00000131    0.00000067   -0.00000000
     atom    6 type  1   force =    -0.00000071    0.00000054   -0.00000000
     atom    7 type  1   force =    -0.00000036    0.00000114   -0.00000000
     atom    8 type  1   force =     0.00000008   -0.00000034   -0.00000000
     atom    9 type  1   force =     0.00000065    0.00000004   -0.00000000
     atom   10 type  1   force =    -0.00000035    0.00000022   -0.00000000
     atom   11 type  1   force =    -0.00000056    0.00000020   -0.00000000
     atom   12 type  1   force =     0.00000008   -0.00000141   -0.00000000
     atom   13 type  1   force =    -0.00000018    0.00000127   -0.00000000
     atom   14 type  1   force =     0.00000018   -0.00000014   -0.00000000
     atom   15 type  1   force =    -0.00000016    0.00000058   -0.00000000
     atom   16 type  1   force =     0.00000119   -0.00000046   -0.00000000
     atom   17 type  1   force =    -0.00000018   -0.00000001   -0.00000000
     atom   18 type  1   force =    -0.00000008   -0.00000080   -0.00000000
     atom   19 type  1   force =    -0.00000101   -0.00000043   -0.00000000
     atom   20 type  1   force =    -0.00000166   -0.00000003   -0.00000000
     atom   21 type  2   force =    -0.00000031    0.00000011    0.00000000
     atom   22 type  1   force =    -0.00000091   -0.00000011   -0.00000000
     atom   23 type  1   force =     0.00000004   -0.00000087   -0.00000000
     atom   24 type  1   force =     0.00000057   -0.00000031   -0.00000000
     atom   25 type  1   force =     0.00000098   -0.00000083   -0.00000000
     atom   26 type  1   force =    -0.00000017    0.00000004   -0.00000000
     atom   27 type  1   force =    -0.00000085    0.00000151   -0.00000000
     atom   28 type  1   force =     0.00000046   -0.00000014   -0.00000000
     atom   29 type  1   force =    -0.00000007   -0.00000028   -0.00000000
     atom   30 type  1   force =    -0.00000033   -0.00000018   -0.00000000
     atom   31 type  1   force =    -0.00000006    0.00000012   -0.00000000
     atom   32 type  1   force =     0.00000129   -0.00000041   -0.00000000
     atom   33 type  1   force =     0.00000005    0.00000139   -0.00000000
     atom   34 type  1   force =    -0.00000125   -0.00000053   -0.00000000
     atom   35 type  1   force =    -0.00000060   -0.00000077   -0.00000000
     atom   36 type  1   force =     0.00000049    0.00000009   -0.00000000
     atom   37 type  2   force =     0.00000120    0.00000024   -0.00000000
     atom   38 type  2   force =     0.00000147    0.00000045    0.00000000
     atom   39 type  2   force =     0.00000188    0.00000083   -0.00000000
     atom   40 type  2   force =    -0.00000013   -0.00000036   -0.00000000
     atom   41 type  2   force =    -0.00000106    0.00000149   -0.00000000
     atom   42 type  2   force =     0.00000100    0.00000018   -0.00000000
     atom   43 type  2   force =    -0.00000002   -0.00000003   -0.00000000
     atom   44 type  2   force =     0.00000038    0.00000037   -0.00000000
     atom   45 type  2   force =     0.00000094   -0.00000111   -0.00000000
     atom   46 type  2   force =    -0.00000034    0.00000218   -0.00000000
     atom   47 type  2   force =     0.00000186   -0.00000120   -0.00000000
     atom   48 type  2   force =    -0.00000217    0.00000034   -0.00000000
     atom   49 type  2   force =    -0.00000016    0.00000157   -0.00000000
     atom   50 type  2   force =     0.00000065   -0.00000006   -0.00000000
     atom   51 type  2   force =     0.00000091    0.00000139   -0.00000000
     atom   52 type  2   force =     0.00000223   -0.00000126   -0.00000000
     atom   53 type  2   force =    -0.00000232   -0.00000126   -0.00000000
     atom   54 type  2   force =    -0.00000016    0.00000043   -0.00000000
     atom   55 type  2   force =    -0.00000362    0.00000022   -0.00000000
     atom   56 type  2   force =    -0.00000175    0.00000036   -0.00000000
     atom   57 type  2   force =    -0.00000106   -0.00000070   -0.00000000
     atom   58 type  2   force =     0.00000223   -0.00000063   -0.00000000
     atom   59 type  2   force =     0.00000034   -0.00000168   -0.00000000
     atom   60 type  2   force =     0.00000129   -0.00000222   -0.00000000
     atom   61 type  2   force =    -0.00000319    0.00000159   -0.00000000
     atom   62 type  2   force =    -0.00000100    0.00000103   -0.00000000
     atom   63 type  2   force =     0.00000019   -0.00000015    0.00000000
     atom   64 type  2   force =    -0.00000086   -0.00000074   -0.00000000
     atom   65 type  2   force =     0.00000070   -0.00000137   -0.00000000
     atom   66 type  2   force =     0.00000120   -0.00000067   -0.00000000
     atom   67 type  2   force =     0.00000257   -0.00000030   -0.00000000
     atom   68 type  2   force =    -0.00000177    0.00000315   -0.00000000
     atom   69 type  2   force =    -0.00000107   -0.00000052   -0.00000000
     atom   70 type  2   force =     0.00000021   -0.00000066   -0.00000000
     atom   71 type  2   force =     0.00000005   -0.00000055   -0.00000000

     Total force =     0.001929     Total SCF correction =     0.000012

     bfgs converged in   5 scf cycles and   4 bfgs steps
     (criteria: energy <  1.0E-05 Ry, force <  1.0E-03 Ry/Bohr)

     End of BFGS Geometry Optimization

     Final energy   =    -919.2907589761 Ry
Begin final coordinates

ATOMIC_POSITIONS (angstrom)
B        1.274551982   0.724416011   0.000000000
B        0.025228977   2.880219388   0.000000000
B       -1.264843786   5.045582636   0.000000000
B       -2.552271017   7.217295374   0.000000000
B       -3.807188412   9.386759506   0.000000000
B       -5.037248211  11.560152977   0.000000000
B        3.768630381   0.756278717   0.000000000
B        2.571012870   2.983829987   0.000000000
B        1.229867462   5.075023054   0.000000000
B       -0.063326545   7.234236403   0.000000000
B       -1.304955252   9.406648603   0.000000000
B       -2.539674365  11.583471463   0.000000000
B        6.259232995   0.736049653   0.000000000
B        5.050146845   2.978866798   0.000000000
B        3.808567355   5.332067705   0.000000000
B        2.403958021   7.263829654   0.000000000
B        1.196326996   9.416247667   0.000000000
B       -0.033089913  11.581183142   0.000000000
B        8.788193084   0.686536195   0.000000000
B        7.595477052   2.845186915   0.000000000
N        6.345505255   4.987976961   0.000000000
B        4.779392986   7.014338196   0.000000000
B        3.712005209   9.375143496   0.000000000
B        2.491219698  11.550743696   0.000000000
B       11.304517301   0.669418063   0.000000000
B       10.081923974   2.832143138   0.000000000
B        8.826146300   4.978329655   0.000000000
B        7.438317446   7.115690767   0.000000000
B        6.194333020   9.260128915   0.000000000
B        5.010244164  11.515408009   0.000000000
B       13.807421939   0.679798000   0.000000000
B       12.565687651   2.854096793   0.000000000
B       11.292253299   5.025190521   0.000000000
B        9.985798279   7.190197859   0.000000000
B        8.722749001   9.336651350   0.000000000
B        7.501949477  11.512101549   0.000000000
N        0.014859642   1.426941583   0.000000000
N       -1.235895547   3.593983885   0.000000000
N       -2.519919039   5.766321767   0.000000000
N       -3.811116132   7.933947791   0.000000000
N       -5.065172992  10.096486642   0.000000000
N       -6.285340571  12.279995556   0.000000000
N        2.532599547   1.499885447   0.000000000
N        1.273737641   3.631128942   0.000000000
N       -0.032196275   5.786246955   0.000000000
N       -1.311565353   7.956768585   0.000000000
N       -2.555925231  10.129191828   0.000000000
N       -3.784058524  12.317279167   0.000000000
N        5.024939057   1.505061999   0.000000000
N        3.843097623   3.795843220   0.000000000
N        2.450668743   5.827563274   0.000000000
N        1.169635633   7.976825080   0.000000000
N       -0.052549848  10.137692579   0.000000000
N       -1.283112572  12.313366797   0.000000000
N        7.539080830   1.414841165   0.000000000
N        6.379617192   3.608060775   0.000000000
N        3.670735259   7.942034571   0.000000000
N        2.465704400  10.112923528   0.000000000
N        1.240232696  12.277558439   0.000000000
N       10.055023591   1.392707293   0.000000000
N        8.840424826   3.548560542   0.000000000
N        7.557245577   5.649859005   0.000000000
N        6.127567262   7.753159248   0.000000000
N        4.984013478  10.058748775   0.000000000
N        3.762437171  12.251654959   0.000000000
N       12.556693870   1.402895035   0.000000000
N       11.315142315   3.575733964   0.000000000
N       10.036673473   5.742531553   0.000000000
N        8.702533190   7.874234834   0.000000000
N        7.460695687  10.035927567   0.000000000
N        6.263091861  12.250808826   0.000000000
End final coordinates



     Writing output data file BN.save
 
     init_run     :      3.62s CPU      3.91s WALL (       1 calls)
     electrons    :    174.12s CPU    176.81s WALL (       5 calls)
     update_pot   :      3.92s CPU      4.17s WALL (       4 calls)
     forces       :      3.61s CPU      3.68s WALL (       5 calls)

     Called by init_run:
     wfcinit      :      1.45s CPU      1.50s WALL (       1 calls)
     wfcinit:atom :      0.01s CPU      0.01s WALL (       1 calls)
     wfcinit:wfcr :      1.38s CPU      1.41s WALL (       1 calls)
     potinit      :      0.58s CPU      0.62s WALL (       1 calls)

     Called by electrons:
     c_bands      :    134.27s CPU    135.62s WALL (      47 calls)
     sum_band     :     22.10s CPU     22.27s WALL (      47 calls)
     v_of_rho     :     15.41s CPU     16.08s WALL (      49 calls)
     v_h          :      0.49s CPU      0.54s WALL (      49 calls)
     v_xc         :     14.92s CPU     15.54s WALL (      49 calls)
     mix_rho      :      1.66s CPU      1.75s WALL (      47 calls)

     Called by c_bands:
     init_us_2    :      1.42s CPU      1.43s WALL (      95 calls)
     regterg      :    128.21s CPU    129.52s WALL (      47 calls)

     Called by sum_band:

     Called by *egterg:
     h_psi        :     97.42s CPU     97.56s WALL (     236 calls)
     g_psi        :      0.43s CPU      0.43s WALL (     188 calls)
     rdiaghg      :     11.86s CPU     11.86s WALL (     228 calls)
     regterg:over :      7.97s CPU      7.98s WALL (     188 calls)
     regterg:upda :      5.99s CPU      5.99s WALL (     188 calls)
     regterg:last :      2.36s CPU      2.36s WALL (      47 calls)

     Called by h_psi:
     h_psi:pot    :     96.38s CPU     96.52s WALL (     236 calls)
     h_psi:calbec :      8.39s CPU      8.39s WALL (     236 calls)
     vloc_psi     :     79.35s CPU     79.48s WALL (     236 calls)
     add_vuspsi   :      8.64s CPU      8.64s WALL (     236 calls)

     General routines
     calbec       :      9.58s CPU      9.58s WALL (     256 calls)
     fft          :      6.22s CPU      7.14s WALL (    1036 calls)
     fftw         :     73.02s CPU     73.15s WALL (   26096 calls)
 
     Parallel routines
     fft_scatter  :     25.13s CPU     26.02s WALL (   27132 calls)
 
     PWSCF        :  3m 7.56s CPU     3m12.93s WALL

 
   This run was terminated on:  11:57:52  30Aug2018            

=------------------------------------------------------------------------------=
   JOB DONE.
=------------------------------------------------------------------------------=
