
     Program PWSCF v.6.1 (svn rev. 13369) starts on 12May2020 at 10:27:13 

     This program is part of the open-source Quantum ESPRESSO suite
     for quantum simulation of materials; please cite
         "P. Giannozzi et al., J. Phys.:Condens. Matter 21 395502 (2009);
          URL http://www.quantum-espresso.org", 
     in publications or presentations arising from this work. More details at
     http://www.quantum-espresso.org/quote

     Parallel version (MPI), running on    96 processors
     K-points division:     npool     =       6
     R & G space division:  proc/nbgrp/npool/nimage =      16
     Reading input from scf.in
Warning: card &IONS ignored
Warning: card / ignored

     Current dimensions of program PWSCF are:
     Max number of different atomic species (ntypx) = 10
     Max number of k-points (npk) =  40000
     Max angular momentum in pseudopotentials (lmaxx) =  3

     Subspace diagonalization in iterative solution of the eigenvalue problem:
     a serial algorithm will be used

 
     Parallelization info
     --------------------
     sticks:   dense  smooth     PW     G-vecs:    dense   smooth      PW
     Min         252     252     67                12125    12125    1669
     Max         254     254     68                12129    12129    1672
     Sum        4049    4049   1085               194039   194039   26745
 


     bravais-lattice index     =            1
     lattice parameter (alat)  =      13.4862  a.u.
     unit-cell volume          =    2452.8358 (a.u.)^3
     number of atoms/cell      =           63
     number of atomic types    =            2
     number of electrons       =       254.00 (up: 127.00, down: 127.00)
     number of Kohn-Sham states=          152
     kinetic-energy cutoff     =      70.0000  Ry
     charge density cutoff     =     280.0000  Ry
     convergence threshold     =      1.0E-06
     mixing beta               =       0.5000
     number of iterations used =            8  plain     mixing
     Exchange-correlation      = PBE ( 1  4  3  4 0 0)

     celldm(1)=  13.486197  celldm(2)=   0.000000  celldm(3)=   0.000000
     celldm(4)=   0.000000  celldm(5)=   0.000000  celldm(6)=   0.000000

     crystal axes: (cart. coord. in units of alat)
               a(1) = (   1.000000   0.000000   0.000000 )  
               a(2) = (   0.000000   1.000000   0.000000 )  
               a(3) = (   0.000000   0.000000   1.000000 )  

     reciprocal axes: (cart. coord. in units 2 pi/alat)
               b(1) = (  1.000000  0.000000  0.000000 )  
               b(2) = (  0.000000  1.000000  0.000000 )  
               b(3) = (  0.000000  0.000000  1.000000 )  


     PseudoPot. # 1 for C  read from file:
     /home/tjsmart/Pseudo/C_ONCV_PBE-1.0.upf
     MD5 check sum: 72b63e32b2fd29504de26a4901699f60
     Pseudo is Norm-conserving, Zval =  4.0
     Generated using ONCVPSP code by D. R. Hamann
     Using radial grid of 1248 points,  4 beta functions with: 
                l(1) =   0
                l(2) =   0
                l(3) =   1
                l(4) =   1

     PseudoPot. # 2 for N  read from file:
     /home/tjsmart/Pseudo/N_ONCV_PBE-1.0.upf
     MD5 check sum: 09890da6b2972017450f7114a6086fad
     Pseudo is Norm-conserving, Zval =  5.0
     Generated using ONCVPSP code by D. R. Hamann
     Using radial grid of 1058 points,  4 beta functions with: 
                l(1) =   0
                l(2) =   0
                l(3) =   1
                l(4) =   1

     atomic species   valence    mass     pseudopotential
        C              4.00    12.01110     C ( 1.00)
        N              5.00    14.00670     N ( 1.00)

     Starting magnetic structure 
     atomic species   magnetization
        C            0.200
        N            0.200

      6 Sym. Ops. (no inversion) found


                                    s                        frac. trans.

      isym =  1     identity                                     

 cryst.   s( 1) = (     1          0          0      )
                  (     0          1          0      )
                  (     0          0          1      )

 cart.    s( 1) = (  1.0000000  0.0000000  0.0000000 )
                  (  0.0000000  1.0000000  0.0000000 )
                  (  0.0000000  0.0000000  1.0000000 )


      isym =  2     120 deg rotation - cart. axis [-1,-1,-1]     

 cryst.   s( 2) = (     0          0          1      )
                  (     1          0          0      )
                  (     0          1          0      )

 cart.    s( 2) = (  0.0000000  1.0000000  0.0000000 )
                  (  0.0000000  0.0000000  1.0000000 )
                  (  1.0000000  0.0000000  0.0000000 )


      isym =  3     120 deg rotation - cart. axis [1,1,1]        

 cryst.   s( 3) = (     0          1          0      )
                  (     0          0          1      )
                  (     1          0          0      )

 cart.    s( 3) = (  0.0000000  0.0000000  1.0000000 )
                  (  1.0000000  0.0000000  0.0000000 )
                  (  0.0000000  1.0000000  0.0000000 )


      isym =  4     inv. 180 deg rotation - cart. axis [1,-1,0]  

 cryst.   s( 4) = (     0          1          0      )
                  (     1          0          0      )
                  (     0          0          1      )

 cart.    s( 4) = (  0.0000000  1.0000000  0.0000000 )
                  (  1.0000000  0.0000000  0.0000000 )
                  (  0.0000000  0.0000000  1.0000000 )


      isym =  5     inv. 180 deg rotation - cart. axis [-1,0,1]  

 cryst.   s( 5) = (     0          0          1      )
                  (     0          1          0      )
                  (     1          0          0      )

 cart.    s( 5) = (  0.0000000  0.0000000  1.0000000 )
                  (  0.0000000  1.0000000  0.0000000 )
                  (  1.0000000  0.0000000  0.0000000 )


      isym =  6     inv. 180 deg rotation - cart. axis [0,1,-1]  

 cryst.   s( 6) = (     1          0          0      )
                  (     0          0          1      )
                  (     0          1          0      )

 cart.    s( 6) = (  1.0000000  0.0000000  0.0000000 )
                  (  0.0000000  0.0000000  1.0000000 )
                  (  0.0000000  1.0000000  0.0000000 )


     point group C_3v (3m)  
     there are  3 classes
     the character table:

       E     2C3   3s_v 
A_1    1.00  1.00  1.00
A_2    1.00  1.00 -1.00
E      2.00 -1.00  0.00

     the symmetry operations in each class and the name of the first element:

     E        1
          identity                                               
     2C3      2    3
          120 deg rotation - cart. axis [-1,-1,-1]               
     3s_v     4    5    6
          inv. 180 deg rotation - cart. axis [1,-1,0]            

   Cartesian axes

     site n.     atom                  positions (alat units)
         1           C   tau(   1) = (   0.3757796   0.3757796   0.8735742  )
         2           C   tau(   2) = (   0.5002647   0.0004361   0.0004361  )
         3           C   tau(   3) = (   0.4999805  -0.0004371   0.4999805  )
         4           C   tau(   4) = (   0.0004361   0.5002647   0.0004361  )
         5           C   tau(   5) = (  -0.0004371   0.4999805   0.4999805  )
         6           C   tau(   6) = (  -0.0001223  -0.0001223  -0.0001223  )
         7           C   tau(   7) = (   0.0004361   0.0004361   0.5002647  )
         8           C   tau(   8) = (   0.2504569   0.2504569  -0.0008989  )
         9           C   tau(   9) = (   0.2514017   0.2514017   0.4963701  )
        10           C   tau(  10) = (   0.2501495   0.7491355   0.0008441  )
        11           C   tau(  11) = (   0.2511009   0.7486260   0.5021133  )
        12           C   tau(  12) = (   0.7491355   0.2501495   0.0008441  )
        13           C   tau(  13) = (   0.7486260   0.2511009   0.5021133  )
        14           C   tau(  14) = (   0.7495082   0.7495082  -0.0008518  )
        15           C   tau(  15) = (   0.4999805   0.4999805  -0.0004371  )
        16           C   tau(  16) = (   0.7485540   0.7485540   0.4983137  )
        17           C   tau(  17) = (   0.5021133   0.2511009   0.7486260  )
        18           C   tau(  18) = (   0.5021133   0.7486260   0.2511009  )
        19           C   tau(  19) = (   0.4983137   0.7485540   0.7485540  )
        20           C   tau(  20) = (  -0.0008989   0.2504569   0.2504569  )
        21           C   tau(  21) = (   0.0008441   0.2501495   0.7491355  )
        22           C   tau(  22) = (   0.0008441   0.7491355   0.2501495  )
        23           C   tau(  23) = (  -0.0008518   0.7495082   0.7495082  )
        24           C   tau(  24) = (   0.2514017   0.4963701   0.2514017  )
        25           C   tau(  25) = (   0.2511009   0.5021133   0.7486260  )
        26           C   tau(  26) = (   0.2504569  -0.0008989   0.2504569  )
        27           C   tau(  27) = (   0.2501495   0.0008441   0.7491355  )
        28           C   tau(  28) = (   0.7486260   0.5021133   0.2511009  )
        29           C   tau(  29) = (   0.7485540   0.4983137   0.7485540  )
        30           C   tau(  30) = (   0.4963701   0.2514017   0.2514017  )
        31           C   tau(  31) = (   0.7491355   0.0008441   0.2501495  )
        32           C   tau(  32) = (   0.6242333   0.8736477   0.6242333  )
        33           C   tau(  33) = (   0.6362459   0.3623897   0.6362459  )
        34           C   tau(  34) = (   0.3756851   0.8762217   0.8762217  )
        35           C   tau(  35) = (   0.3757796   0.8735742   0.3757796  )
        36           C   tau(  36) = (   0.8762217   0.3756851   0.8762217  )
        37           C   tau(  37) = (   0.8735742   0.3757796   0.3757796  )
        38           C   tau(  38) = (   0.8744853   0.8744853   0.8744853  )
        39           C   tau(  39) = (   0.8762217   0.8762217   0.3756851  )
        40           C   tau(  40) = (   0.1253700   0.1253700   0.8744275  )
        41           C   tau(  41) = (   0.1245712   0.1245712   0.3748732  )
        42           C   tau(  42) = (   0.1235909   0.6243232   0.8761514  )
        43           C   tau(  43) = (   0.1265754   0.6234742   0.3763860  )
        44           C   tau(  44) = (   0.6243232   0.1235909   0.8761514  )
        45           C   tau(  45) = (   0.6234742   0.1265754   0.3763860  )
        46           C   tau(  46) = (   0.6243232   0.8761514   0.1235909  )
        47           C   tau(  47) = (   0.6242333   0.6242333   0.8736477  )
        48           C   tau(  48) = (   0.3748732   0.1245712   0.1245712  )
        49           C   tau(  49) = (   0.3763860   0.1265754   0.6234742  )
        50           C   tau(  50) = (   0.3763860   0.6234742   0.1265754  )
        51           C   tau(  51) = (   0.3623897   0.6362459   0.6362459  )
        52           C   tau(  52) = (   0.8744275   0.1253700   0.1253700  )
        53           C   tau(  53) = (   0.8761514   0.1235909   0.6243232  )
        54           C   tau(  54) = (   0.8761514   0.6243232   0.1235909  )
        55           C   tau(  55) = (   0.8736477   0.6242333   0.6242333  )
        56           C   tau(  56) = (   0.1245712   0.3748732   0.1245712  )
        57           C   tau(  57) = (   0.1265754   0.3763860   0.6234742  )
        58           C   tau(  58) = (   0.1253700   0.8744275   0.1253700  )
        59           C   tau(  59) = (   0.1235909   0.8761514   0.6243232  )
        60           C   tau(  60) = (   0.6234742   0.3763860   0.1265754  )
        61           C   tau(  61) = (   0.6362459   0.6362459   0.3623897  )
        62           C   tau(  62) = (   0.7495082  -0.0008518   0.7495082  )
        63           N   tau(  63) = (   0.3678200   0.3678200   0.3678200  )

   Crystallographic axes

     site n.     atom                  positions (cryst. coord.)
         1           C   tau(   1) = (  0.3757796  0.3757796  0.8735742  )
         2           C   tau(   2) = (  0.5002647  0.0004361  0.0004361  )
         3           C   tau(   3) = (  0.4999805 -0.0004371  0.4999805  )
         4           C   tau(   4) = (  0.0004361  0.5002647  0.0004361  )
         5           C   tau(   5) = ( -0.0004371  0.4999805  0.4999805  )
         6           C   tau(   6) = ( -0.0001223 -0.0001223 -0.0001223  )
         7           C   tau(   7) = (  0.0004361  0.0004361  0.5002647  )
         8           C   tau(   8) = (  0.2504569  0.2504569 -0.0008989  )
         9           C   tau(   9) = (  0.2514017  0.2514017  0.4963701  )
        10           C   tau(  10) = (  0.2501495  0.7491355  0.0008441  )
        11           C   tau(  11) = (  0.2511009  0.7486260  0.5021133  )
        12           C   tau(  12) = (  0.7491355  0.2501495  0.0008441  )
        13           C   tau(  13) = (  0.7486260  0.2511009  0.5021133  )
        14           C   tau(  14) = (  0.7495082  0.7495082 -0.0008518  )
        15           C   tau(  15) = (  0.4999805  0.4999805 -0.0004371  )
        16           C   tau(  16) = (  0.7485540  0.7485540  0.4983137  )
        17           C   tau(  17) = (  0.5021133  0.2511009  0.7486260  )
        18           C   tau(  18) = (  0.5021133  0.7486260  0.2511009  )
        19           C   tau(  19) = (  0.4983137  0.7485540  0.7485540  )
        20           C   tau(  20) = ( -0.0008989  0.2504569  0.2504569  )
        21           C   tau(  21) = (  0.0008441  0.2501495  0.7491355  )
        22           C   tau(  22) = (  0.0008441  0.7491355  0.2501495  )
        23           C   tau(  23) = ( -0.0008518  0.7495082  0.7495082  )
        24           C   tau(  24) = (  0.2514017  0.4963701  0.2514017  )
        25           C   tau(  25) = (  0.2511009  0.5021133  0.7486260  )
        26           C   tau(  26) = (  0.2504569 -0.0008989  0.2504569  )
        27           C   tau(  27) = (  0.2501495  0.0008441  0.7491355  )
        28           C   tau(  28) = (  0.7486260  0.5021133  0.2511009  )
        29           C   tau(  29) = (  0.7485540  0.4983137  0.7485540  )
        30           C   tau(  30) = (  0.4963701  0.2514017  0.2514017  )
        31           C   tau(  31) = (  0.7491355  0.0008441  0.2501495  )
        32           C   tau(  32) = (  0.6242333  0.8736477  0.6242333  )
        33           C   tau(  33) = (  0.6362459  0.3623897  0.6362459  )
        34           C   tau(  34) = (  0.3756851  0.8762217  0.8762217  )
        35           C   tau(  35) = (  0.3757796  0.8735742  0.3757796  )
        36           C   tau(  36) = (  0.8762217  0.3756851  0.8762217  )
        37           C   tau(  37) = (  0.8735742  0.3757796  0.3757796  )
        38           C   tau(  38) = (  0.8744853  0.8744853  0.8744853  )
        39           C   tau(  39) = (  0.8762217  0.8762217  0.3756851  )
        40           C   tau(  40) = (  0.1253700  0.1253700  0.8744275  )
        41           C   tau(  41) = (  0.1245712  0.1245712  0.3748732  )
        42           C   tau(  42) = (  0.1235909  0.6243232  0.8761514  )
        43           C   tau(  43) = (  0.1265754  0.6234742  0.3763860  )
        44           C   tau(  44) = (  0.6243232  0.1235909  0.8761514  )
        45           C   tau(  45) = (  0.6234742  0.1265754  0.3763860  )
        46           C   tau(  46) = (  0.6243232  0.8761514  0.1235909  )
        47           C   tau(  47) = (  0.6242333  0.6242333  0.8736477  )
        48           C   tau(  48) = (  0.3748732  0.1245712  0.1245712  )
        49           C   tau(  49) = (  0.3763860  0.1265754  0.6234742  )
        50           C   tau(  50) = (  0.3763860  0.6234742  0.1265754  )
        51           C   tau(  51) = (  0.3623897  0.6362459  0.6362459  )
        52           C   tau(  52) = (  0.8744275  0.1253700  0.1253700  )
        53           C   tau(  53) = (  0.8761514  0.1235909  0.6243232  )
        54           C   tau(  54) = (  0.8761514  0.6243232  0.1235909  )
        55           C   tau(  55) = (  0.8736477  0.6242333  0.6242333  )
        56           C   tau(  56) = (  0.1245712  0.3748732  0.1245712  )
        57           C   tau(  57) = (  0.1265754  0.3763860  0.6234742  )
        58           C   tau(  58) = (  0.1253700  0.8744275  0.1253700  )
        59           C   tau(  59) = (  0.1235909  0.8761514  0.6243232  )
        60           C   tau(  60) = (  0.6234742  0.3763860  0.1265754  )
        61           C   tau(  61) = (  0.6362459  0.6362459  0.3623897  )
        62           C   tau(  62) = (  0.7495082 -0.0008518  0.7495082  )
        63           N   tau(  63) = (  0.3678200  0.3678200  0.3678200  )

     number of k points=     6  Marzari-Vanderbilt smearing, width (Ry)=  0.0010
                       cart. coord. in units 2pi/alat
        k(    1) = (   0.0000000   0.0000000   0.0000000), wk =   0.0370370
        k(    2) = (   0.0000000   0.0000000   0.3333333), wk =   0.2222222
        k(    3) = (   0.0000000   0.3333333   0.3333333), wk =   0.2222222
        k(    4) = (   0.3333333   0.3333333   0.3333333), wk =   0.0740741
        k(    5) = (  -0.3333333   0.0000000   0.3333333), wk =   0.2222222
        k(    6) = (   0.3333333  -0.3333333   0.3333333), wk =   0.2222222

                       cryst. coord.
        k(    1) = (   0.0000000   0.0000000   0.0000000), wk =   0.0370370
        k(    2) = (   0.0000000   0.0000000   0.3333333), wk =   0.2222222
        k(    3) = (   0.0000000   0.3333333   0.3333333), wk =   0.2222222
        k(    4) = (   0.3333333   0.3333333   0.3333333), wk =   0.0740741
        k(    5) = (  -0.3333333   0.0000000   0.3333333), wk =   0.2222222
        k(    6) = (   0.3333333  -0.3333333   0.3333333), wk =   0.2222222

     Dense  grid:   194039 G-vectors     FFT dimensions: (  72,  72,  72)

     Estimated max dynamical RAM per process >      60.23MB

     Estimated total allocated dynamical RAM >    5782.56MB
     Generating pointlists ...
     new r_m :   0.0855 (alat units)  1.1537 (a.u.) for type    1
     new r_m :   0.0862 (alat units)  1.1620 (a.u.) for type    2

     Initial potential from superposition of free atoms

     starting charge  252.99722, renormalised to  254.00000
     Starting wfc are  252 randomized atomic wfcs

     total cpu time spent up to now is        3.6 secs

     per-process dynamical memory:    59.5 Mb

     Self-consistent Calculation

     iteration #  1     ecut=    70.00 Ry     beta=0.50
     Davidson diagonalization with overlap
     ethr =  1.00E-02,  avg # of iterations =  3.0

     total cpu time spent up to now is        5.9 secs

     total energy              =    -724.33266693 Ry
     Harris-Foulkes estimate   =    -724.78244323 Ry
     estimated scf accuracy    <       4.23914827 Ry

     total magnetization       =     0.00 Bohr mag/cell
     absolute magnetization    =     0.90 Bohr mag/cell

     iteration #  2     ecut=    70.00 Ry     beta=0.50
     Davidson diagonalization with overlap
     ethr =  1.67E-03,  avg # of iterations =  2.0

     total cpu time spent up to now is        7.3 secs

     total energy              =    -724.66007132 Ry
     Harris-Foulkes estimate   =    -724.57809222 Ry
     estimated scf accuracy    <       0.67067533 Ry

     total magnetization       =     0.00 Bohr mag/cell
     absolute magnetization    =     0.35 Bohr mag/cell

     iteration #  3     ecut=    70.00 Ry     beta=0.50
     Davidson diagonalization with overlap
     ethr =  2.64E-04,  avg # of iterations =  8.8

     total cpu time spent up to now is       11.3 secs

     total energy              =    -724.72997829 Ry
     Harris-Foulkes estimate   =    -724.77084580 Ry
     estimated scf accuracy    <       0.15183730 Ry

     total magnetization       =     0.00 Bohr mag/cell
     absolute magnetization    =     0.11 Bohr mag/cell

     iteration #  4     ecut=    70.00 Ry     beta=0.50
     Davidson diagonalization with overlap
     ethr =  5.98E-05,  avg # of iterations =  7.8

     total cpu time spent up to now is       15.1 secs

     total energy              =    -724.76831396 Ry
     Harris-Foulkes estimate   =    -724.76593879 Ry
     estimated scf accuracy    <       0.01319351 Ry

     total magnetization       =    -0.00 Bohr mag/cell
     absolute magnetization    =     0.07 Bohr mag/cell

     iteration #  5     ecut=    70.00 Ry     beta=0.50
     Davidson diagonalization with overlap
     ethr =  5.19E-06,  avg # of iterations =  8.2

     total cpu time spent up to now is       19.5 secs

     total energy              =    -724.77163574 Ry
     Harris-Foulkes estimate   =    -724.77134675 Ry
     estimated scf accuracy    <       0.00153228 Ry

     total magnetization       =     0.00 Bohr mag/cell
     absolute magnetization    =     0.04 Bohr mag/cell

     iteration #  6     ecut=    70.00 Ry     beta=0.50
     Davidson diagonalization with overlap
     ethr =  6.03E-07,  avg # of iterations =  5.0

     total cpu time spent up to now is       22.5 secs

     total energy              =    -724.77189274 Ry
     Harris-Foulkes estimate   =    -724.77191560 Ry
     estimated scf accuracy    <       0.00020060 Ry

     total magnetization       =     0.00 Bohr mag/cell
     absolute magnetization    =     0.02 Bohr mag/cell

     iteration #  7     ecut=    70.00 Ry     beta=0.50
     Davidson diagonalization with overlap
     ethr =  7.90E-08,  avg # of iterations =  3.0

     total cpu time spent up to now is       24.6 secs

     total energy              =    -724.77194926 Ry
     Harris-Foulkes estimate   =    -724.77195856 Ry
     estimated scf accuracy    <       0.00003698 Ry

     total magnetization       =     0.00 Bohr mag/cell
     absolute magnetization    =     0.01 Bohr mag/cell

     iteration #  8     ecut=    70.00 Ry     beta=0.50
     Davidson diagonalization with overlap
     ethr =  1.46E-08,  avg # of iterations =  2.8

     total cpu time spent up to now is       26.4 secs

     total energy              =    -724.77195739 Ry
     Harris-Foulkes estimate   =    -724.77195731 Ry
     estimated scf accuracy    <       0.00000291 Ry

     total magnetization       =     0.00 Bohr mag/cell
     absolute magnetization    =     0.01 Bohr mag/cell

     iteration #  9     ecut=    70.00 Ry     beta=0.50
     Davidson diagonalization with overlap
     ethr =  1.15E-09,  avg # of iterations =  3.1
 
     Magnetic moment per site:
     atom:    1    charge:    1.8269    magn:   -0.0000    constr:    0.0000
     atom:    2    charge:    1.8475    magn:   -0.0000    constr:    0.0000
     atom:    3    charge:    1.8356    magn:    0.0000    constr:    0.0000
     atom:    4    charge:    1.8475    magn:   -0.0000    constr:    0.0000
     atom:    5    charge:    1.8356    magn:    0.0000    constr:    0.0000
     atom:    6    charge:    1.8250    magn:    0.0000    constr:    0.0000
     atom:    7    charge:    1.8475    magn:   -0.0000    constr:    0.0000
     atom:    8    charge:    1.8283    magn:    0.0000    constr:    0.0000
     atom:    9    charge:    1.8021    magn:   -0.0001    constr:    0.0000
     atom:   10    charge:    1.8236    magn:    0.0000    constr:    0.0000
     atom:   11    charge:    1.8389    magn:    0.0000    constr:    0.0000
     atom:   12    charge:    1.8236    magn:    0.0000    constr:    0.0000
     atom:   13    charge:    1.8389    magn:    0.0000    constr:    0.0000
     atom:   14    charge:    1.8274    magn:    0.0000    constr:    0.0000
     atom:   15    charge:    1.8356    magn:    0.0000    constr:    0.0000
     atom:   16    charge:    1.8350    magn:    0.0000    constr:    0.0000
     atom:   17    charge:    1.8389    magn:    0.0000    constr:    0.0000
     atom:   18    charge:    1.8389    magn:    0.0000    constr:    0.0000
     atom:   19    charge:    1.8350    magn:    0.0000    constr:    0.0000
     atom:   20    charge:    1.8283    magn:    0.0000    constr:    0.0000
     atom:   21    charge:    1.8236    magn:    0.0000    constr:    0.0000
     atom:   22    charge:    1.8236    magn:    0.0000    constr:    0.0000
     atom:   23    charge:    1.8274    magn:    0.0000    constr:    0.0000
     atom:   24    charge:    1.8021    magn:   -0.0001    constr:    0.0000
     atom:   25    charge:    1.8389    magn:    0.0000    constr:    0.0000
     atom:   26    charge:    1.8283    magn:    0.0000    constr:    0.0000
     atom:   27    charge:    1.8236    magn:    0.0000    constr:    0.0000
     atom:   28    charge:    1.8389    magn:    0.0000    constr:    0.0000
     atom:   29    charge:    1.8350    magn:    0.0000    constr:    0.0000
     atom:   30    charge:    1.8021    magn:   -0.0001    constr:    0.0000
     atom:   31    charge:    1.8236    magn:    0.0000    constr:    0.0000
     atom:   32    charge:    1.8282    magn:    0.0000    constr:    0.0000
     atom:   33    charge:    1.8479    magn:    0.0000    constr:    0.0000
     atom:   34    charge:    1.8250    magn:    0.0000    constr:    0.0000
     atom:   35    charge:    1.8269    magn:   -0.0000    constr:    0.0000
     atom:   36    charge:    1.8250    magn:    0.0000    constr:    0.0000
     atom:   37    charge:    1.8269    magn:   -0.0000    constr:    0.0000
     atom:   38    charge:    1.8318    magn:    0.0000    constr:    0.0000
     atom:   39    charge:    1.8250    magn:    0.0000    constr:    0.0000
     atom:   40    charge:    1.8312    magn:    0.0000    constr:    0.0000
     atom:   41    charge:    1.8361    magn:    0.0000    constr:    0.0000
     atom:   42    charge:    1.8311    magn:    0.0000    constr:    0.0000
     atom:   43    charge:    1.8261    magn:    0.0000    constr:    0.0000
     atom:   44    charge:    1.8311    magn:    0.0000    constr:    0.0000
     atom:   45    charge:    1.8261    magn:    0.0000    constr:    0.0000
     atom:   46    charge:    1.8311    magn:    0.0000    constr:    0.0000
     atom:   47    charge:    1.8282    magn:    0.0000    constr:    0.0000
     atom:   48    charge:    1.8361    magn:    0.0000    constr:    0.0000
     atom:   49    charge:    1.8261    magn:    0.0000    constr:    0.0000
     atom:   50    charge:    1.8261    magn:    0.0000    constr:    0.0000
     atom:   51    charge:    1.8479    magn:    0.0000    constr:    0.0000
     atom:   52    charge:    1.8312    magn:    0.0000    constr:    0.0000
     atom:   53    charge:    1.8311    magn:    0.0000    constr:    0.0000
     atom:   54    charge:    1.8311    magn:    0.0000    constr:    0.0000
     atom:   55    charge:    1.8282    magn:    0.0000    constr:    0.0000
     atom:   56    charge:    1.8361    magn:    0.0000    constr:    0.0000
     atom:   57    charge:    1.8261    magn:    0.0000    constr:    0.0000
     atom:   58    charge:    1.8312    magn:    0.0000    constr:    0.0000
     atom:   59    charge:    1.8311    magn:    0.0000    constr:    0.0000
     atom:   60    charge:    1.8261    magn:    0.0000    constr:    0.0000
     atom:   61    charge:    1.8479    magn:    0.0000    constr:    0.0000
     atom:   62    charge:    1.8274    magn:    0.0000    constr:    0.0000
     atom:   63    charge:    2.9418    magn:    0.0007    constr:    0.0000

     total cpu time spent up to now is       28.6 secs

     End of self-consistent calculation

 ------ SPIN UP ------------


          k = 0.0000 0.0000 0.0000 ( 24207 PWs)   bands (ev):

    -8.5510  -6.8891  -6.2916  -6.2916  -6.1817  -6.1817  -5.8847  -4.9093
    -4.1482  -4.1482  -4.1166  -4.1166  -4.0417  -4.0313  -4.0313  -3.9498
    -3.8822  -3.8822  -3.3684  -2.9640  -2.6846  -2.6846  -2.1090  -0.3763
    -0.3763  -0.3578  -0.3280  -0.1104   0.1604   0.1604   0.2690   0.2690
     0.3434   0.5875   0.8130   0.8130   0.9453   0.9529   0.9529   1.0101
     1.0153   1.0153   1.3221   1.3221   3.0655   3.9325   3.9325   4.0379
     4.1753   4.1753   4.1767   4.2304   4.2307   4.2307   4.3922   4.3922
     4.4549   4.4549   4.5357   4.6294   4.6294   4.6294   4.6309   4.7394
     4.7394   4.8654   4.9261   4.9261   5.0299   5.1801   5.1801   5.2637
     5.3146   5.3146   5.3476   5.3763   5.3763   6.0034   6.0034   6.0420
     6.6058   6.6058   6.6804   6.9789   6.9890   6.9890   7.5267   8.3114
     8.3114   8.3677   8.4221   8.4221   8.6170   8.6170   8.7410   8.7696
     8.7696   8.7858   8.8349   8.8349   8.8409   9.2251   9.2330   9.2330
     9.6499   9.6499   9.8335   9.8501   9.8745   9.8749   9.8749   9.9213
     9.9213   9.9439   9.9569   9.9569  10.0415  10.0415  10.2418  10.2529
    10.2529  11.0811  12.3101  12.4215  12.4215  14.0164  15.2704  15.2704
    17.2846  17.3256  17.3256  17.4651  17.5298  17.5298  17.7921  17.8842
    17.8842  17.9890  17.9890  18.3456  18.9003  18.9003  18.9367  20.6028
    20.7523  20.7523  20.8006  20.8773  20.8773  20.9659  20.9666  20.9666

     occupation numbers 
     1.0000   1.0000   1.0000   1.0000   1.0000   1.0000   1.0000   1.0000
     1.0000   1.0000   1.0000   1.0000   1.0000   1.0000   1.0000   1.0000
     1.0000   1.0000   1.0000   1.0000   1.0000   1.0000   1.0000   1.0000
     1.0000   1.0000   1.0000   1.0000   1.0000   1.0000   1.0000   1.0000
     1.0000   1.0000   1.0000   1.0000   1.0000   1.0000   1.0000   1.0000
     1.0000   1.0000   1.0000   1.0000   1.0000   1.0000   1.0000   1.0000
     1.0000   1.0000   1.0000   1.0000   1.0000   1.0000   1.0000   1.0000
     1.0000   1.0000   1.0000   1.0000   1.0000   1.0000   1.0000   1.0000
     1.0000   1.0000   1.0000   1.0000   1.0000   1.0000   1.0000   1.0000
     1.0000   1.0000   1.0000   1.0000   1.0000   1.0000   1.0000   1.0000
     1.0000   1.0000   1.0000   1.0000   1.0000   1.0000   1.0000   1.0000
     1.0000   1.0000   1.0000   1.0000   1.0000   1.0000   1.0000   1.0000
     1.0000   1.0000   1.0000   1.0000   1.0000   1.0000   1.0000   1.0000
     1.0000   1.0000   1.0000   1.0000   1.0000   1.0000   1.0000   1.0000
     1.0000   1.0000   1.0000   1.0000   1.0000   1.0000   1.0000   1.0000
     1.0000   1.0000   1.0000   1.0000   1.0000   1.0000   0.0000   0.0000
     0.0000   0.0000   0.0000   0.0000   0.0000   0.0000   0.0000   0.0000
     0.0000   0.0000   0.0000   0.0000   0.0000   0.0000   0.0000   0.0000
     0.0000   0.0000   0.0000   0.0000   0.0000   0.0000   0.0000   0.0000

          k = 0.0000 0.0000 0.3333 ( 24280 PWs)   bands (ev):

    -8.3162  -7.5511  -6.5156  -6.0460  -5.9401  -5.8257  -5.4884  -5.3060
    -5.1903  -4.9858  -4.5118  -4.1161  -3.8306  -3.7954  -3.6951  -3.4345
    -3.2249  -3.1557  -2.9366  -2.5989  -2.5177  -2.4006  -2.3233  -1.7727
    -0.8287  -0.7044  -0.5970  -0.3488   0.1835   0.2809   0.3419   0.3862
     0.4677   0.5487   0.5672   0.6554   0.7235   0.7481   0.9681   1.4737
     1.9931   2.0074   2.1390   2.2337   2.4047   2.4778   2.4784   2.7382
     2.9523   2.9961   3.1566   3.1669   3.8945   3.9781   4.0451   4.0578
     4.2822   4.3704   4.5130   4.5501   5.0906   5.1110   5.1425   5.1955
     5.1965   5.6017   5.6131   5.7128   5.7272   6.0668   6.1085   6.1705
     6.1867   6.3202   6.4014   6.4490   6.4900   6.6092   6.6229   6.7433
     6.7510   6.8797   6.8948   6.9277   7.1327   7.1576   7.1804   7.2496
     7.4202   7.4653   7.6698   7.7713   7.8294   8.0415   8.1496   8.2678
     8.2904   8.4323   8.6793   8.7003   8.7615   9.0994   9.1801   9.3543
     9.3723   9.6309   9.6496   9.7098   9.7599   9.9093   9.9309   9.9375
     9.9632   9.9980  10.1001  10.1199  10.1521  10.2646  10.2709  10.3597
    10.3670  11.3732  11.6973  11.7232  12.0450  13.7836  14.9654  15.1426
    17.1927  17.2908  17.9436  18.3061  18.3490  18.4803  18.5091  18.6118
    18.8214  18.8336  18.9899  19.0802  19.2058  19.8258  19.8598  20.4728
    20.6611  20.6839  20.7826  20.7845  20.8263  20.8518  20.9057  20.9449

     occupation numbers 
     1.0000   1.0000   1.0000   1.0000   1.0000   1.0000   1.0000   1.0000
     1.0000   1.0000   1.0000   1.0000   1.0000   1.0000   1.0000   1.0000
     1.0000   1.0000   1.0000   1.0000   1.0000   1.0000   1.0000   1.0000
     1.0000   1.0000   1.0000   1.0000   1.0000   1.0000   1.0000   1.0000
     1.0000   1.0000   1.0000   1.0000   1.0000   1.0000   1.0000   1.0000
     1.0000   1.0000   1.0000   1.0000   1.0000   1.0000   1.0000   1.0000
     1.0000   1.0000   1.0000   1.0000   1.0000   1.0000   1.0000   1.0000
     1.0000   1.0000   1.0000   1.0000   1.0000   1.0000   1.0000   1.0000
     1.0000   1.0000   1.0000   1.0000   1.0000   1.0000   1.0000   1.0000
     1.0000   1.0000   1.0000   1.0000   1.0000   1.0000   1.0000   1.0000
     1.0000   1.0000   1.0000   1.0000   1.0000   1.0000   1.0000   1.0000
     1.0000   1.0000   1.0000   1.0000   1.0000   1.0000   1.0000   1.0000
     1.0000   1.0000   1.0000   1.0000   1.0000   1.0000   1.0000   1.0000
     1.0000   1.0000   1.0000   1.0000   1.0000   1.0000   1.0000   1.0000
     1.0000   1.0000   1.0000   1.0000   1.0000   1.0000   1.0000   1.0000
     1.0000   1.0000   1.0000   1.0000   1.0000   1.0000   1.0000   0.0000
     0.0000   0.0000   0.0000   0.0000   0.0000   0.0000   0.0000   0.0000
     0.0000   0.0000   0.0000   0.0000   0.0000   0.0000   0.0000   0.0000
     0.0000   0.0000   0.0000   0.0000   0.0000   0.0000   0.0000   0.0000

          k = 0.0000 0.3333 0.3333 ( 24236 PWs)   bands (ev):

    -8.0936  -7.3574  -7.2419  -6.5628  -5.9470  -5.6826  -5.3164  -5.0302
    -5.0013  -4.8470  -4.4945  -4.2720  -4.2329  -3.9454  -3.5377  -3.5120
    -2.7613  -2.3856  -2.3293  -2.3262  -2.2107  -2.1909  -2.0532  -1.8987
    -1.5094  -1.3140  -1.1005  -0.9268  -0.5488  -0.0128   0.0623   0.1150
     0.1786   0.4732   0.6894   1.1765   1.1903   1.2941   1.3690   1.4040
     1.4513   1.4591   1.9400   2.0662   2.1302   2.4058   2.7291   2.8275
     2.9614   3.5206   3.6532   3.7034   3.7827   3.8099   3.9704   4.0258
     4.0997   4.5530   4.6750   4.8270   5.0142   5.0562   5.1407   5.2994
     5.3605   5.5841   5.6462   5.6854   5.7473   5.9874   6.0254   6.0767
     6.1329   6.2236   6.2616   6.4972   6.5336   6.5966   6.6442   6.8554
     6.9008   6.9363   7.0272   7.0380   7.2329   7.2876   7.4991   7.7101
     7.9258   7.9442   8.0749   8.0874   8.1123   8.2123   8.2571   8.3147
     8.3372   8.3982   8.5380   8.6171   8.7030   8.7089   8.8400   8.8807
     9.0527   9.1881   9.2358   9.3073   9.4584   9.4800   9.5732   9.6238
     9.6946   9.7967   9.8981  10.0391  10.0444  10.1061  10.4435  10.7576
    11.0209  11.1995  11.5461  11.8699  12.2163  13.6030  14.9045  15.2037
    18.0639  18.1977  18.2389  18.3008  18.3496  18.8229  18.8546  18.9707
    19.1785  19.2307  19.4435  19.4693  19.6964  19.7962  19.9757  20.0160
    20.1967  20.4596  20.4783  20.5060  20.5652  20.5858  20.6112  20.6474

     occupation numbers 
     1.0000   1.0000   1.0000   1.0000   1.0000   1.0000   1.0000   1.0000
     1.0000   1.0000   1.0000   1.0000   1.0000   1.0000   1.0000   1.0000
     1.0000   1.0000   1.0000   1.0000   1.0000   1.0000   1.0000   1.0000
     1.0000   1.0000   1.0000   1.0000   1.0000   1.0000   1.0000   1.0000
     1.0000   1.0000   1.0000   1.0000   1.0000   1.0000   1.0000   1.0000
     1.0000   1.0000   1.0000   1.0000   1.0000   1.0000   1.0000   1.0000
     1.0000   1.0000   1.0000   1.0000   1.0000   1.0000   1.0000   1.0000
     1.0000   1.0000   1.0000   1.0000   1.0000   1.0000   1.0000   1.0000
     1.0000   1.0000   1.0000   1.0000   1.0000   1.0000   1.0000   1.0000
     1.0000   1.0000   1.0000   1.0000   1.0000   1.0000   1.0000   1.0000
     1.0000   1.0000   1.0000   1.0000   1.0000   1.0000   1.0000   1.0000
     1.0000   1.0000   1.0000   1.0000   1.0000   1.0000   1.0000   1.0000
     1.0000   1.0000   1.0000   1.0000   1.0000   1.0000   1.0000   1.0000
     1.0000   1.0000   1.0000   1.0000   1.0000   1.0000   1.0000   1.0000
     1.0000   1.0000   1.0000   1.0000   1.0000   1.0000   1.0000   1.0000
     1.0000   1.0000   1.0000   1.0000   1.0000   1.0000   1.0000   0.0000
     0.0000   0.0000   0.0000   0.0000   0.0000   0.0000   0.0000   0.0000
     0.0000   0.0000   0.0000   0.0000   0.0000   0.0000   0.0000   0.0000
     0.0000   0.0000   0.0000   0.0000   0.0000   0.0000   0.0000   0.0000

          k = 0.3333 0.3333 0.3333 ( 24303 PWs)   bands (ev):

    -7.8869  -7.1783  -6.9932  -6.9932  -6.2741  -6.2366  -6.2366  -5.4597
    -4.1870  -4.0452  -4.0452  -3.5172  -3.3955  -3.3955  -3.3384  -3.3068
    -3.3068  -2.9120  -2.6754  -2.6754  -1.9520  -1.9073  -1.9073  -1.5429
    -1.4580  -1.4580  -1.4098  -1.4098  -1.3757  -1.2299  -1.2299   0.0600
     0.8485   0.8485   0.9896   0.9896   0.9931   1.3057   1.8224   1.8224
     1.8554   1.9188   2.0099   2.0099   2.5918   2.5918   2.6002   2.6848
     2.7155   2.7155   3.1464   3.1464   3.5336   4.0654   4.2917   4.2917
     4.8180   4.9313   4.9378   4.9378   5.0822   5.0822   5.1462   5.3126
     5.3126   5.4089   5.4972   5.4972   5.5966   5.5966   5.6513   6.3835
     6.7313   6.7313   6.9272   6.9686   6.9686   6.9990   7.0680   7.0680
     7.1879   7.1879   7.2307   7.2571   7.2571   7.2663   7.3468   7.3534
     7.3534   7.4889   7.7335   7.7335   7.9229   7.9229   7.9550   7.9773
     8.1772   8.1772   8.2785   8.3034   8.3034   8.4139   8.4677   8.4677
     8.6750   8.6750   8.8693   9.0397   9.1081   9.5273   9.5273   9.7898
     9.7898  10.4799  10.4878  10.4878  10.5981  10.9365  10.9365  11.2627
    11.2627  11.2631  11.5238  11.6652  11.6652  13.5030  15.1967  15.1967
    18.1387  18.2452  18.2452  18.4549  18.6495  18.6495  19.2077  19.3999
    19.3999  19.5365  19.5365  19.5783  19.6119  19.6119  19.6468  19.7453
    19.7453  19.8675  19.9218  19.9218  20.0024  20.0025  20.0196  20.1394

     occupation numbers 
     1.0000   1.0000   1.0000   1.0000   1.0000   1.0000   1.0000   1.0000
     1.0000   1.0000   1.0000   1.0000   1.0000   1.0000   1.0000   1.0000
     1.0000   1.0000   1.0000   1.0000   1.0000   1.0000   1.0000   1.0000
     1.0000   1.0000   1.0000   1.0000   1.0000   1.0000   1.0000   1.0000
     1.0000   1.0000   1.0000   1.0000   1.0000   1.0000   1.0000   1.0000
     1.0000   1.0000   1.0000   1.0000   1.0000   1.0000   1.0000   1.0000
     1.0000   1.0000   1.0000   1.0000   1.0000   1.0000   1.0000   1.0000
     1.0000   1.0000   1.0000   1.0000   1.0000   1.0000   1.0000   1.0000
     1.0000   1.0000   1.0000   1.0000   1.0000   1.0000   1.0000   1.0000
     1.0000   1.0000   1.0000   1.0000   1.0000   1.0000   1.0000   1.0000
     1.0000   1.0000   1.0000   1.0000   1.0000   1.0000   1.0000   1.0000
     1.0000   1.0000   1.0000   1.0000   1.0000   1.0000   1.0000   1.0000
     1.0000   1.0000   1.0000   1.0000   1.0000   1.0000   1.0000   1.0000
     1.0000   1.0000   1.0000   1.0000   1.0000   1.0000   1.0000   1.0000
     1.0000   1.0000   1.0000   1.0000   1.0000   1.0000   1.0000   1.0000
     1.0000   1.0000   1.0000   1.0000   1.0000   1.0000   0.0000   0.0000
     0.0000   0.0000   0.0000   0.0000   0.0000   0.0000   0.0000   0.0000
     0.0000   0.0000   0.0000   0.0000   0.0000   0.0000   0.0000   0.0000
     0.0000   0.0000   0.0000   0.0000   0.0000   0.0000   0.0000   0.0000

          k =-0.3333 0.0000 0.3333 ( 24236 PWs)   bands (ev):

    -8.0802  -7.4817  -7.1114  -6.5523  -5.9757  -5.6867  -5.3705  -5.0330
    -4.9402  -4.7847  -4.5208  -4.2890  -4.2298  -4.0572  -3.6001  -3.3362
    -2.7724  -2.4056  -2.3657  -2.3074  -2.1968  -2.1632  -2.1142  -1.6587
    -1.6492  -1.3191  -1.1256  -0.9781  -0.6146   0.0088   0.0782   0.1210
     0.2503   0.4751   0.8683   1.0609   1.2143   1.2335   1.2419   1.3987
     1.4705   1.5765   1.8477   1.9116   2.1306   2.5742   2.6815   2.8565
     2.9426   3.5154   3.6577   3.7042   3.7827   3.8821   4.0243   4.1083
     4.1781   4.3894   4.6332   4.8126   4.9656   5.0256   5.1858   5.2422
     5.4034   5.5597   5.6468   5.6716   5.7872   6.0376   6.0780   6.1238
     6.1660   6.2131   6.2579   6.4418   6.4780   6.6064   6.6394   6.8253
     6.8904   6.9533   7.0011   7.0899   7.2166   7.3964   7.5028   7.6786
     7.8492   7.9063   7.9641   8.0660   8.1720   8.2128   8.2419   8.2783
     8.3660   8.4297   8.5235   8.5893   8.7105   8.7466   8.8820   8.9653
     9.0700   9.1372   9.2270   9.3137   9.4515   9.4880   9.5028   9.6479
     9.7255   9.7361   9.9219  10.0236  10.0662  10.1035  10.4849  10.8744
    10.9771  11.1650  11.4937  11.7574  12.2592  13.8520  14.8100  15.1084
    18.0333  18.2086  18.2507  18.3035  18.3760  18.7830  18.9255  19.1044
    19.1492  19.2763  19.3640  19.4774  19.7041  19.8490  19.8783  20.0262
    20.2317  20.3554  20.4178  20.5043  20.5638  20.5767  20.6338  20.6750

     occupation numbers 
     1.0000   1.0000   1.0000   1.0000   1.0000   1.0000   1.0000   1.0000
     1.0000   1.0000   1.0000   1.0000   1.0000   1.0000   1.0000   1.0000
     1.0000   1.0000   1.0000   1.0000   1.0000   1.0000   1.0000   1.0000
     1.0000   1.0000   1.0000   1.0000   1.0000   1.0000   1.0000   1.0000
     1.0000   1.0000   1.0000   1.0000   1.0000   1.0000   1.0000   1.0000
     1.0000   1.0000   1.0000   1.0000   1.0000   1.0000   1.0000   1.0000
     1.0000   1.0000   1.0000   1.0000   1.0000   1.0000   1.0000   1.0000
     1.0000   1.0000   1.0000   1.0000   1.0000   1.0000   1.0000   1.0000
     1.0000   1.0000   1.0000   1.0000   1.0000   1.0000   1.0000   1.0000
     1.0000   1.0000   1.0000   1.0000   1.0000   1.0000   1.0000   1.0000
     1.0000   1.0000   1.0000   1.0000   1.0000   1.0000   1.0000   1.0000
     1.0000   1.0000   1.0000   1.0000   1.0000   1.0000   1.0000   1.0000
     1.0000   1.0000   1.0000   1.0000   1.0000   1.0000   1.0000   1.0000
     1.0000   1.0000   1.0000   1.0000   1.0000   1.0000   1.0000   1.0000
     1.0000   1.0000   1.0000   1.0000   1.0000   1.0000   1.0000   1.0000
     1.0000   1.0000   1.0000   1.0000   1.0000   1.0000   1.0000   0.5000
     0.0000   0.0000   0.0000   0.0000   0.0000   0.0000   0.0000   0.0000
     0.0000   0.0000   0.0000   0.0000   0.0000   0.0000   0.0000   0.0000
     0.0000   0.0000   0.0000   0.0000   0.0000   0.0000   0.0000   0.0000

          k = 0.3333-0.3333 0.3333 ( 24303 PWs)   bands (ev):

    -7.8606  -7.3282  -6.9934  -6.8302  -6.4651  -6.2359  -5.9913  -5.4901
    -4.4605  -4.0448  -3.9372  -3.7211  -3.4290  -3.3580  -3.3181  -3.2430
    -3.0828  -2.8893  -2.6925  -2.4325  -2.0694  -1.8931  -1.8558  -1.7196
    -1.4856  -1.4694  -1.4471  -1.3670  -1.3628  -1.2569  -1.1968  -0.0552
     0.7588   0.8514   0.9505   0.9976   1.0655   1.4230   1.7524   1.7753
     1.8515   1.9474   2.0312   2.2300   2.5846   2.6117   2.6802   2.6996
     2.7092   2.7757   2.9188   3.1715   3.5076   4.0042   4.2400   4.2935
     4.8310   4.8346   4.8572   5.0057   5.0316   5.0546   5.1860   5.2435
     5.2686   5.4269   5.4329   5.5028   5.6847   5.7761   5.8132   6.4759
     6.7277   6.7719   6.9207   6.9217   6.9673   7.0463   7.0637   7.0853
     7.1565   7.1582   7.2143   7.2545   7.2559   7.3210   7.3380   7.3513
     7.3632   7.4674   7.7216   7.7379   7.8334   7.9147   7.9424   7.9524
     8.1318   8.1492   8.2525   8.2821   8.3381   8.3993   8.4061   8.4696
     8.6976   8.7143   8.9518   8.9964   9.1131   9.5355   9.5715   9.7054
     9.8561  10.4053  10.5037  10.5080  10.5566  10.9262  10.9420  11.2036
    11.2261  11.2727  11.4716  11.7146  11.7427  13.8741  14.8818  15.1948
    18.0939  18.2641  18.3395  18.5327  18.6504  18.7245  19.1980  19.3838
    19.4439  19.5051  19.5313  19.5502  19.6029  19.6286  19.6601  19.7128
    19.7458  19.7929  19.9064  19.9244  19.9752  19.9875  20.0443  20.1496

     occupation numbers 
     1.0000   1.0000   1.0000   1.0000   1.0000   1.0000   1.0000   1.0000
     1.0000   1.0000   1.0000   1.0000   1.0000   1.0000   1.0000   1.0000
     1.0000   1.0000   1.0000   1.0000   1.0000   1.0000   1.0000   1.0000
     1.0000   1.0000   1.0000   1.0000   1.0000   1.0000   1.0000   1.0000
     1.0000   1.0000   1.0000   1.0000   1.0000   1.0000   1.0000   1.0000
     1.0000   1.0000   1.0000   1.0000   1.0000   1.0000   1.0000   1.0000
     1.0000   1.0000   1.0000   1.0000   1.0000   1.0000   1.0000   1.0000
     1.0000   1.0000   1.0000   1.0000   1.0000   1.0000   1.0000   1.0000
     1.0000   1.0000   1.0000   1.0000   1.0000   1.0000   1.0000   1.0000
     1.0000   1.0000   1.0000   1.0000   1.0000   1.0000   1.0000   1.0000
     1.0000   1.0000   1.0000   1.0000   1.0000   1.0000   1.0000   1.0000
     1.0000   1.0000   1.0000   1.0000   1.0000   1.0000   1.0000   1.0000
     1.0000   1.0000   1.0000   1.0000   1.0000   1.0000   1.0000   1.0000
     1.0000   1.0000   1.0000   1.0000   1.0000   1.0000   1.0000   1.0000
     1.0000   1.0000   1.0000   1.0000   1.0000   1.0000   1.0000   1.0000
     1.0000   1.0000   1.0000   1.0000   1.0000   1.0000   1.0000   0.0000
     0.0000   0.0000   0.0000   0.0000   0.0000   0.0000   0.0000   0.0000
     0.0000   0.0000   0.0000   0.0000   0.0000   0.0000   0.0000   0.0000
     0.0000   0.0000   0.0000   0.0000   0.0000   0.0000   0.0000   0.0000

 ------ SPIN DOWN ----------


          k = 0.0000 0.0000 0.0000 ( 24207 PWs)   bands (ev):

    -8.5511  -6.8885  -6.2918  -6.2918  -6.1818  -6.1818  -5.8848  -4.9089
    -4.1484  -4.1484  -4.1168  -4.1168  -4.0418  -4.0314  -4.0314  -3.9499
    -3.8823  -3.8823  -3.3685  -2.9639  -2.6848  -2.6848  -2.1090  -0.3764
    -0.3764  -0.3579  -0.3282  -0.1102   0.1602   0.1602   0.2689   0.2689
     0.3433   0.5875   0.8129   0.8129   0.9453   0.9529   0.9529   1.0100
     1.0153   1.0153   1.3221   1.3221   3.0654   3.9326   3.9326   4.0379
     4.1753   4.1753   4.1766   4.2304   4.2306   4.2306   4.3921   4.3921
     4.4548   4.4548   4.5356   4.6293   4.6293   4.6293   4.6307   4.7394
     4.7394   4.8654   4.9260   4.9260   5.0298   5.1801   5.1801   5.2636
     5.3145   5.3145   5.3475   5.3763   5.3763   6.0033   6.0033   6.0420
     6.6058   6.6058   6.6803   6.9789   6.9890   6.9890   7.5266   8.3116
     8.3116   8.3677   8.4221   8.4221   8.6170   8.6170   8.7409   8.7696
     8.7696   8.7858   8.8349   8.8349   8.8409   9.2251   9.2330   9.2330
     9.6500   9.6500   9.8336   9.8501   9.8745   9.8749   9.8749   9.9213
     9.9213   9.9439   9.9569   9.9569  10.0415  10.0415  10.2419  10.2529
    10.2529  11.0817  12.3101  12.4216  12.4216  14.0172  15.2704  15.2704
    17.2846  17.3256  17.3256  17.4651  17.5298  17.5298  17.7922  17.8841
    17.8841  17.9889  17.9889  18.3455  18.9004  18.9004  18.9368  20.6030
    20.7522  20.7522  20.8007  20.8774  20.8775  20.9660  20.9670  20.9671

     occupation numbers 
     1.0000   1.0000   1.0000   1.0000   1.0000   1.0000   1.0000   1.0000
     1.0000   1.0000   1.0000   1.0000   1.0000   1.0000   1.0000   1.0000
     1.0000   1.0000   1.0000   1.0000   1.0000   1.0000   1.0000   1.0000
     1.0000   1.0000   1.0000   1.0000   1.0000   1.0000   1.0000   1.0000
     1.0000   1.0000   1.0000   1.0000   1.0000   1.0000   1.0000   1.0000
     1.0000   1.0000   1.0000   1.0000   1.0000   1.0000   1.0000   1.0000
     1.0000   1.0000   1.0000   1.0000   1.0000   1.0000   1.0000   1.0000
     1.0000   1.0000   1.0000   1.0000   1.0000   1.0000   1.0000   1.0000
     1.0000   1.0000   1.0000   1.0000   1.0000   1.0000   1.0000   1.0000
     1.0000   1.0000   1.0000   1.0000   1.0000   1.0000   1.0000   1.0000
     1.0000   1.0000   1.0000   1.0000   1.0000   1.0000   1.0000   1.0000
     1.0000   1.0000   1.0000   1.0000   1.0000   1.0000   1.0000   1.0000
     1.0000   1.0000   1.0000   1.0000   1.0000   1.0000   1.0000   1.0000
     1.0000   1.0000   1.0000   1.0000   1.0000   1.0000   1.0000   1.0000
     1.0000   1.0000   1.0000   1.0000   1.0000   1.0000   1.0000   1.0000
     1.0000   1.0000   1.0000   1.0000   1.0000   1.0000   0.0000   0.0000
     0.0000   0.0000   0.0000   0.0000   0.0000   0.0000   0.0000   0.0000
     0.0000   0.0000   0.0000   0.0000   0.0000   0.0000   0.0000   0.0000
     0.0000   0.0000   0.0000   0.0000   0.0000   0.0000   0.0000   0.0000

          k = 0.0000 0.0000 0.3333 ( 24280 PWs)   bands (ev):

    -8.3163  -7.5511  -6.5152  -6.0462  -5.9403  -5.8258  -5.4884  -5.3062
    -5.1904  -4.9859  -4.5119  -4.1160  -3.8307  -3.7956  -3.6952  -3.4345
    -3.2251  -3.1559  -2.9367  -2.5990  -2.5179  -2.4007  -2.3234  -1.7727
    -0.8287  -0.7045  -0.5971  -0.3488   0.1835   0.2808   0.3418   0.3861
     0.4676   0.5487   0.5671   0.6553   0.7234   0.7481   0.9681   1.4737
     1.9930   2.0073   2.1389   2.2336   2.4047   2.4778   2.4783   2.7381
     2.9523   2.9961   3.1565   3.1668   3.8944   3.9780   4.0450   4.0577
     4.2821   4.3703   4.5130   4.5500   5.0906   5.1110   5.1424   5.1955
     5.1964   5.6017   5.6131   5.7128   5.7271   6.0668   6.1085   6.1705
     6.1866   6.3202   6.4014   6.4489   6.4900   6.6092   6.6229   6.7433
     6.7510   6.8797   6.8948   6.9277   7.1327   7.1576   7.1804   7.2495
     7.4202   7.4653   7.6698   7.7713   7.8294   8.0414   8.1497   8.2677
     8.2904   8.4323   8.6793   8.7003   8.7615   9.0995   9.1801   9.3543
     9.3724   9.6310   9.6496   9.7098   9.7600   9.9093   9.9309   9.9375
     9.9633   9.9980  10.1001  10.1200  10.1521  10.2646  10.2709  10.3597
    10.3670  11.3738  11.6973  11.7232  12.0451  13.7843  14.9654  15.1426
    17.1927  17.2908  17.9436  18.3061  18.3491  18.4803  18.5091  18.6118
    18.8214  18.8336  18.9899  19.0801  19.2058  19.8260  19.8600  20.4730
    20.6611  20.6839  20.7826  20.7846  20.8262  20.8519  20.9057  20.9448

     occupation numbers 
     1.0000   1.0000   1.0000   1.0000   1.0000   1.0000   1.0000   1.0000
     1.0000   1.0000   1.0000   1.0000   1.0000   1.0000   1.0000   1.0000
     1.0000   1.0000   1.0000   1.0000   1.0000   1.0000   1.0000   1.0000
     1.0000   1.0000   1.0000   1.0000   1.0000   1.0000   1.0000   1.0000
     1.0000   1.0000   1.0000   1.0000   1.0000   1.0000   1.0000   1.0000
     1.0000   1.0000   1.0000   1.0000   1.0000   1.0000   1.0000   1.0000
     1.0000   1.0000   1.0000   1.0000   1.0000   1.0000   1.0000   1.0000
     1.0000   1.0000   1.0000   1.0000   1.0000   1.0000   1.0000   1.0000
     1.0000   1.0000   1.0000   1.0000   1.0000   1.0000   1.0000   1.0000
     1.0000   1.0000   1.0000   1.0000   1.0000   1.0000   1.0000   1.0000
     1.0000   1.0000   1.0000   1.0000   1.0000   1.0000   1.0000   1.0000
     1.0000   1.0000   1.0000   1.0000   1.0000   1.0000   1.0000   1.0000
     1.0000   1.0000   1.0000   1.0000   1.0000   1.0000   1.0000   1.0000
     1.0000   1.0000   1.0000   1.0000   1.0000   1.0000   1.0000   1.0000
     1.0000   1.0000   1.0000   1.0000   1.0000   1.0000   1.0000   1.0000
     1.0000   1.0000   1.0000   1.0000   1.0000   1.0000   1.0000   0.0000
     0.0000   0.0000   0.0000   0.0000   0.0000   0.0000   0.0000   0.0000
     0.0000   0.0000   0.0000   0.0000   0.0000   0.0000   0.0000   0.0000
     0.0000   0.0000   0.0000   0.0000   0.0000   0.0000   0.0000   0.0000

          k = 0.0000 0.3333 0.3333 ( 24236 PWs)   bands (ev):

    -8.0936  -7.3574  -7.2420  -6.5628  -5.9469  -5.6827  -5.3163  -5.0304
    -5.0015  -4.8472  -4.4945  -4.2721  -4.2330  -3.9456  -3.5377  -3.5121
    -2.7611  -2.3857  -2.3294  -2.3264  -2.2108  -2.1910  -2.0533  -1.8988
    -1.5095  -1.3141  -1.1005  -0.9269  -0.5489  -0.0127   0.0622   0.1149
     0.1785   0.4732   0.6894   1.1763   1.1902   1.2940   1.3689   1.4039
     1.4512   1.4590   1.9400   2.0661   2.1301   2.4058   2.7290   2.8274
     2.9613   3.5205   3.6531   3.7033   3.7826   3.8099   3.9703   4.0258
     4.0997   4.5530   4.6749   4.8269   5.0141   5.0562   5.1406   5.2994
     5.3605   5.5840   5.6462   5.6854   5.7472   5.9874   6.0254   6.0766
     6.1329   6.2236   6.2615   6.4971   6.5335   6.5965   6.6441   6.8554
     6.9008   6.9363   7.0272   7.0380   7.2329   7.2877   7.4991   7.7101
     7.9258   7.9442   8.0749   8.0873   8.1123   8.2123   8.2571   8.3147
     8.3373   8.3982   8.5380   8.6172   8.7029   8.7089   8.8400   8.8807
     9.0527   9.1881   9.2357   9.3072   9.4584   9.4800   9.5732   9.6238
     9.6946   9.7967   9.8981  10.0391  10.0444  10.1061  10.4436  10.7577
    11.0209  11.1996  11.5462  11.8703  12.2164  13.6036  14.9044  15.2036
    18.0639  18.1977  18.2388  18.3007  18.3495  18.8230  18.8547  18.9708
    19.1786  19.2308  19.4435  19.4693  19.6963  19.7961  19.9756  20.0162
    20.1969  20.4597  20.4784  20.5062  20.5653  20.5859  20.6112  20.6475

     occupation numbers 
     1.0000   1.0000   1.0000   1.0000   1.0000   1.0000   1.0000   1.0000
     1.0000   1.0000   1.0000   1.0000   1.0000   1.0000   1.0000   1.0000
     1.0000   1.0000   1.0000   1.0000   1.0000   1.0000   1.0000   1.0000
     1.0000   1.0000   1.0000   1.0000   1.0000   1.0000   1.0000   1.0000
     1.0000   1.0000   1.0000   1.0000   1.0000   1.0000   1.0000   1.0000
     1.0000   1.0000   1.0000   1.0000   1.0000   1.0000   1.0000   1.0000
     1.0000   1.0000   1.0000   1.0000   1.0000   1.0000   1.0000   1.0000
     1.0000   1.0000   1.0000   1.0000   1.0000   1.0000   1.0000   1.0000
     1.0000   1.0000   1.0000   1.0000   1.0000   1.0000   1.0000   1.0000
     1.0000   1.0000   1.0000   1.0000   1.0000   1.0000   1.0000   1.0000
     1.0000   1.0000   1.0000   1.0000   1.0000   1.0000   1.0000   1.0000
     1.0000   1.0000   1.0000   1.0000   1.0000   1.0000   1.0000   1.0000
     1.0000   1.0000   1.0000   1.0000   1.0000   1.0000   1.0000   1.0000
     1.0000   1.0000   1.0000   1.0000   1.0000   1.0000   1.0000   1.0000
     1.0000   1.0000   1.0000   1.0000   1.0000   1.0000   1.0000   1.0000
     1.0000   1.0000   1.0000   1.0000   1.0000   1.0000   1.0000   0.0000
     0.0000   0.0000   0.0000   0.0000   0.0000   0.0000   0.0000   0.0000
     0.0000   0.0000   0.0000   0.0000   0.0000   0.0000   0.0000   0.0000
     0.0000   0.0000   0.0000   0.0000   0.0000   0.0000   0.0000   0.0000

          k = 0.3333 0.3333 0.3333 ( 24303 PWs)   bands (ev):

    -7.8869  -7.1781  -6.9934  -6.9934  -6.2741  -6.2367  -6.2367  -5.4597
    -4.1868  -4.0454  -4.0454  -3.5170  -3.3956  -3.3956  -3.3385  -3.3070
    -3.3070  -2.9121  -2.6755  -2.6755  -1.9521  -1.9074  -1.9074  -1.5429
    -1.4581  -1.4581  -1.4099  -1.4099  -1.3758  -1.2300  -1.2300   0.0600
     0.8484   0.8484   0.9895   0.9895   0.9931   1.3056   1.8223   1.8223
     1.8553   1.9188   2.0098   2.0098   2.5918   2.5918   2.6001   2.6847
     2.7154   2.7154   3.1463   3.1463   3.5336   4.0653   4.2917   4.2917
     4.8180   4.9312   4.9377   4.9377   5.0822   5.0822   5.1461   5.3125
     5.3125   5.4088   5.4971   5.4971   5.5967   5.5967   5.6512   6.3835
     6.7314   6.7314   6.9272   6.9685   6.9685   6.9990   7.0680   7.0680
     7.1878   7.1878   7.2307   7.2570   7.2570   7.2663   7.3467   7.3533
     7.3533   7.4889   7.7335   7.7335   7.9228   7.9228   7.9549   7.9773
     8.1772   8.1772   8.2785   8.3033   8.3033   8.4139   8.4677   8.4677
     8.6750   8.6750   8.8695   9.0397   9.1081   9.5274   9.5274   9.7899
     9.7899  10.4799  10.4878  10.4878  10.5982  10.9366  10.9366  11.2627
    11.2627  11.2632  11.5240  11.6653  11.6653  13.5038  15.1967  15.1967
    18.1388  18.2451  18.2451  18.4549  18.6495  18.6495  19.2079  19.3999
    19.3999  19.5365  19.5365  19.5783  19.6119  19.6119  19.6467  19.7453
    19.7453  19.8675  19.9219  19.9219  20.0024  20.0024  20.0196  20.1394

     occupation numbers 
     1.0000   1.0000   1.0000   1.0000   1.0000   1.0000   1.0000   1.0000
     1.0000   1.0000   1.0000   1.0000   1.0000   1.0000   1.0000   1.0000
     1.0000   1.0000   1.0000   1.0000   1.0000   1.0000   1.0000   1.0000
     1.0000   1.0000   1.0000   1.0000   1.0000   1.0000   1.0000   1.0000
     1.0000   1.0000   1.0000   1.0000   1.0000   1.0000   1.0000   1.0000
     1.0000   1.0000   1.0000   1.0000   1.0000   1.0000   1.0000   1.0000
     1.0000   1.0000   1.0000   1.0000   1.0000   1.0000   1.0000   1.0000
     1.0000   1.0000   1.0000   1.0000   1.0000   1.0000   1.0000   1.0000
     1.0000   1.0000   1.0000   1.0000   1.0000   1.0000   1.0000   1.0000
     1.0000   1.0000   1.0000   1.0000   1.0000   1.0000   1.0000   1.0000
     1.0000   1.0000   1.0000   1.0000   1.0000   1.0000   1.0000   1.0000
     1.0000   1.0000   1.0000   1.0000   1.0000   1.0000   1.0000   1.0000
     1.0000   1.0000   1.0000   1.0000   1.0000   1.0000   1.0000   1.0000
     1.0000   1.0000   1.0000   1.0000   1.0000   1.0000   1.0000   1.0000
     1.0000   1.0000   1.0000   1.0000   1.0000   1.0000   1.0000   1.0000
     1.0000   1.0000   1.0000   1.0000   1.0000   1.0000   0.0000   0.0000
     0.0000   0.0000   0.0000   0.0000   0.0000   0.0000   0.0000   0.0000
     0.0000   0.0000   0.0000   0.0000   0.0000   0.0000   0.0000   0.0000
     0.0000   0.0000   0.0000   0.0000   0.0000   0.0000   0.0000   0.0000

          k =-0.3333 0.0000 0.3333 ( 24236 PWs)   bands (ev):

    -8.0802  -7.4816  -7.1116  -6.5523  -5.9756  -5.6869  -5.3704  -5.0332
    -4.9403  -4.7849  -4.5208  -4.2891  -4.2299  -4.0573  -3.6002  -3.3363
    -2.7722  -2.4058  -2.3658  -2.3075  -2.1969  -2.1633  -2.1144  -1.6588
    -1.6493  -1.3192  -1.1256  -0.9783  -0.6147   0.0086   0.0781   0.1209
     0.2502   0.4750   0.8682   1.0609   1.2142   1.2333   1.2418   1.3986
     1.4704   1.5764   1.8476   1.9115   2.1306   2.5742   2.6815   2.8564
     2.9426   3.5154   3.6576   3.7041   3.7826   3.8820   4.0242   4.1082
     4.1780   4.3894   4.6332   4.8126   4.9655   5.0257   5.1858   5.2421
     5.4034   5.5596   5.6467   5.6715   5.7871   6.0376   6.0780   6.1237
     6.1659   6.2131   6.2578   6.4418   6.4780   6.6064   6.6394   6.8253
     6.8904   6.9533   7.0010   7.0898   7.2166   7.3964   7.5029   7.6787
     7.8492   7.9063   7.9641   8.0659   8.1719   8.2128   8.2419   8.2783
     8.3659   8.4297   8.5235   8.5893   8.7105   8.7465   8.8820   8.9652
     9.0700   9.1373   9.2270   9.3137   9.4515   9.4881   9.5028   9.6479
     9.7255   9.7361   9.9219  10.0236  10.0662  10.1035  10.4849  10.8743
    10.9773  11.1651  11.4937  11.7579  12.2591  13.8526  14.8100  15.1083
    18.0334  18.2085  18.2506  18.3034  18.3759  18.7831  18.9255  19.1044
    19.1492  19.2764  19.3641  19.4774  19.7041  19.8490  19.8783  20.0263
    20.2319  20.3554  20.4179  20.5044  20.5639  20.5767  20.6339  20.6748

     occupation numbers 
     1.0000   1.0000   1.0000   1.0000   1.0000   1.0000   1.0000   1.0000
     1.0000   1.0000   1.0000   1.0000   1.0000   1.0000   1.0000   1.0000
     1.0000   1.0000   1.0000   1.0000   1.0000   1.0000   1.0000   1.0000
     1.0000   1.0000   1.0000   1.0000   1.0000   1.0000   1.0000   1.0000
     1.0000   1.0000   1.0000   1.0000   1.0000   1.0000   1.0000   1.0000
     1.0000   1.0000   1.0000   1.0000   1.0000   1.0000   1.0000   1.0000
     1.0000   1.0000   1.0000   1.0000   1.0000   1.0000   1.0000   1.0000
     1.0000   1.0000   1.0000   1.0000   1.0000   1.0000   1.0000   1.0000
     1.0000   1.0000   1.0000   1.0000   1.0000   1.0000   1.0000   1.0000
     1.0000   1.0000   1.0000   1.0000   1.0000   1.0000   1.0000   1.0000
     1.0000   1.0000   1.0000   1.0000   1.0000   1.0000   1.0000   1.0000
     1.0000   1.0000   1.0000   1.0000   1.0000   1.0000   1.0000   1.0000
     1.0000   1.0000   1.0000   1.0000   1.0000   1.0000   1.0000   1.0000
     1.0000   1.0000   1.0000   1.0000   1.0000   1.0000   1.0000   1.0000
     1.0000   1.0000   1.0000   1.0000   1.0000   1.0000   1.0000   1.0000
     1.0000   1.0000   1.0000   1.0000   1.0000   1.0000   1.0000   0.5000
     0.0000   0.0000   0.0000   0.0000   0.0000   0.0000   0.0000   0.0000
     0.0000   0.0000   0.0000   0.0000   0.0000   0.0000   0.0000   0.0000
     0.0000   0.0000   0.0000   0.0000   0.0000   0.0000   0.0000   0.0000

          k = 0.3333-0.3333 0.3333 ( 24303 PWs)   bands (ev):

    -7.8606  -7.3281  -6.9936  -6.8304  -6.4651  -6.2361  -5.9914  -5.4901
    -4.4602  -4.0450  -3.9373  -3.7212  -3.4292  -3.3582  -3.3182  -3.2431
    -3.0830  -2.8893  -2.6926  -2.4326  -2.0695  -1.8933  -1.8560  -1.7197
    -1.4858  -1.4696  -1.4472  -1.3670  -1.3629  -1.2570  -1.1968  -0.0552
     0.7587   0.8513   0.9504   0.9974   1.0654   1.4229   1.7523   1.7753
     1.8514   1.9474   2.0311   2.2300   2.5845   2.6116   2.6802   2.6996
     2.7091   2.7756   2.9188   3.1715   3.5075   4.0042   4.2399   4.2935
     4.8309   4.8345   4.8572   5.0056   5.0315   5.0545   5.1860   5.2435
     5.2686   5.4269   5.4328   5.5027   5.6846   5.7760   5.8132   6.4759
     6.7279   6.7720   6.9206   6.9217   6.9673   7.0463   7.0637   7.0852
     7.1565   7.1582   7.2143   7.2544   7.2558   7.3210   7.3380   7.3512
     7.3631   7.4674   7.7216   7.7379   7.8335   7.9147   7.9424   7.9524
     8.1318   8.1492   8.2525   8.2821   8.3381   8.3993   8.4060   8.4696
     8.6976   8.7143   8.9517   8.9964   9.1131   9.5355   9.5715   9.7056
     9.8561  10.4053  10.5037  10.5080  10.5567  10.9263  10.9421  11.2036
    11.2261  11.2727  11.4719  11.7146  11.7427  13.8748  14.8818  15.1947
    18.0939  18.2640  18.3394  18.5327  18.6504  18.7244  19.1981  19.3840
    19.4440  19.5051  19.5312  19.5502  19.6029  19.6286  19.6601  19.7128
    19.7458  19.7929  19.9065  19.9245  19.9752  19.9875  20.0443  20.1496

     occupation numbers 
     1.0000   1.0000   1.0000   1.0000   1.0000   1.0000   1.0000   1.0000
     1.0000   1.0000   1.0000   1.0000   1.0000   1.0000   1.0000   1.0000
     1.0000   1.0000   1.0000   1.0000   1.0000   1.0000   1.0000   1.0000
     1.0000   1.0000   1.0000   1.0000   1.0000   1.0000   1.0000   1.0000
     1.0000   1.0000   1.0000   1.0000   1.0000   1.0000   1.0000   1.0000
     1.0000   1.0000   1.0000   1.0000   1.0000   1.0000   1.0000   1.0000
     1.0000   1.0000   1.0000   1.0000   1.0000   1.0000   1.0000   1.0000
     1.0000   1.0000   1.0000   1.0000   1.0000   1.0000   1.0000   1.0000
     1.0000   1.0000   1.0000   1.0000   1.0000   1.0000   1.0000   1.0000
     1.0000   1.0000   1.0000   1.0000   1.0000   1.0000   1.0000   1.0000
     1.0000   1.0000   1.0000   1.0000   1.0000   1.0000   1.0000   1.0000
     1.0000   1.0000   1.0000   1.0000   1.0000   1.0000   1.0000   1.0000
     1.0000   1.0000   1.0000   1.0000   1.0000   1.0000   1.0000   1.0000
     1.0000   1.0000   1.0000   1.0000   1.0000   1.0000   1.0000   1.0000
     1.0000   1.0000   1.0000   1.0000   1.0000   1.0000   1.0000   1.0000
     1.0000   1.0000   1.0000   1.0000   1.0000   1.0000   1.0000   0.0000
     0.0000   0.0000   0.0000   0.0000   0.0000   0.0000   0.0000   0.0000
     0.0000   0.0000   0.0000   0.0000   0.0000   0.0000   0.0000   0.0000
     0.0000   0.0000   0.0000   0.0000   0.0000   0.0000   0.0000   0.0000

     the spin up/dw Fermi energies are    15.1103   15.1102 ev

!    total energy              =    -724.77195875 Ry
     Harris-Foulkes estimate   =    -724.77195835 Ry
     estimated scf accuracy    <       0.00000049 Ry

     The total energy is the sum of the following terms:

     one-electron contribution =     232.20226681 Ry
     hartree contribution      =      69.44402350 Ry
     xc contribution           =    -226.36938370 Ry
     ewald contribution        =    -800.04879239 Ry
     smearing contrib. (-TS)   =      -0.00007297 Ry

     total magnetization       =    -0.00 Bohr mag/cell
     absolute magnetization    =     0.00 Bohr mag/cell

     convergence has been achieved in   9 iterations

     Writing output data file di.save
 
     init_run     :      1.28s CPU      1.69s WALL (       1 calls)
     electrons    :     24.68s CPU     25.10s WALL (       1 calls)

     Called by init_run:
     wfcinit      :      0.75s CPU      0.84s WALL (       1 calls)
     wfcinit:atom :      0.00s CPU      0.01s WALL (       2 calls)
     wfcinit:wfcr :      0.71s CPU      0.78s WALL (       2 calls)
     potinit      :      0.09s CPU      0.10s WALL (       1 calls)

     Called by electrons:
     c_bands      :     23.09s CPU     23.46s WALL (       9 calls)
     sum_band     :      1.08s CPU      1.10s WALL (       9 calls)
     v_of_rho     :      0.36s CPU      0.37s WALL (      10 calls)
     v_h          :      0.01s CPU      0.01s WALL (      10 calls)
     v_xc         :      0.35s CPU      0.36s WALL (      10 calls)
     mix_rho      :      0.06s CPU      0.06s WALL (       9 calls)

     Called by c_bands:
     init_us_2    :      0.17s CPU      0.18s WALL (      38 calls)
     cegterg      :     20.86s CPU     21.21s WALL (      18 calls)

     Called by sum_band:

     Called by *egterg:
     h_psi        :      8.35s CPU      8.48s WALL (     126 calls)
     g_psi        :      0.05s CPU      0.05s WALL (     106 calls)
     cdiaghg      :      8.92s CPU      8.97s WALL (     124 calls)
     cegterg:over :      1.61s CPU      1.62s WALL (     106 calls)
     cegterg:upda :      1.23s CPU      1.24s WALL (     106 calls)
     cegterg:last :      0.45s CPU      0.46s WALL (      18 calls)

     Called by h_psi:
     h_psi:pot    :      8.25s CPU      8.38s WALL (     126 calls)
     h_psi:calbec :      1.79s CPU      1.81s WALL (     126 calls)
     vloc_psi     :      4.59s CPU      4.68s WALL (     126 calls)
     add_vuspsi   :      1.87s CPU      1.89s WALL (     126 calls)

     General routines
     calbec       :      1.79s CPU      1.81s WALL (     126 calls)
     fft          :      0.12s CPU      0.33s WALL (     207 calls)
     fftw         :      4.90s CPU      4.91s WALL (   18356 calls)
 
     Parallel routines
     fft_scatter  :      1.47s CPU      1.45s WALL (   18563 calls)
 
     PWSCF        :    28.80s CPU        32.17s WALL

 
   This run was terminated on:  10:27:45  12May2020            

=------------------------------------------------------------------------------=
   JOB DONE.
=------------------------------------------------------------------------------=
