
     Program PWSCF v.6.1 (svn rev. 13369) starts on 12May2020 at 10:25:25 

     This program is part of the open-source Quantum ESPRESSO suite
     for quantum simulation of materials; please cite
         "P. Giannozzi et al., J. Phys.:Condens. Matter 21 395502 (2009);
          URL http://www.quantum-espresso.org", 
     in publications or presentations arising from this work. More details at
     http://www.quantum-espresso.org/quote

     Parallel version (MPI), running on    96 processors
     K-points division:     npool     =       6
     R & G space division:  proc/nbgrp/npool/nimage =      16
     Reading input from scf.in
Warning: card &IONS ignored
Warning: card / ignored

     Current dimensions of program PWSCF are:
     Max number of different atomic species (ntypx) = 10
     Max number of k-points (npk) =  40000
     Max angular momentum in pseudopotentials (lmaxx) =  3

     Subspace diagonalization in iterative solution of the eigenvalue problem:
     a serial algorithm will be used

 
     Parallelization info
     --------------------
     sticks:   dense  smooth     PW     G-vecs:    dense   smooth      PW
     Min         252     252     67                12125    12125    1669
     Max         254     254     68                12129    12129    1672
     Sum        4049    4049   1085               194039   194039   26745
 


     bravais-lattice index     =            1
     lattice parameter (alat)  =      13.4862  a.u.
     unit-cell volume          =    2452.8358 (a.u.)^3
     number of atoms/cell      =           63
     number of atomic types    =            2
     number of electrons       =       254.00 (up: 127.00, down: 127.00)
     number of Kohn-Sham states=          152
     kinetic-energy cutoff     =      70.0000  Ry
     charge density cutoff     =     280.0000  Ry
     convergence threshold     =      1.0E-06
     mixing beta               =       0.5000
     number of iterations used =            8  plain     mixing
     Exchange-correlation      = PBE ( 1  4  3  4 0 0)

     celldm(1)=  13.486197  celldm(2)=   0.000000  celldm(3)=   0.000000
     celldm(4)=   0.000000  celldm(5)=   0.000000  celldm(6)=   0.000000

     crystal axes: (cart. coord. in units of alat)
               a(1) = (   1.000000   0.000000   0.000000 )  
               a(2) = (   0.000000   1.000000   0.000000 )  
               a(3) = (   0.000000   0.000000   1.000000 )  

     reciprocal axes: (cart. coord. in units 2 pi/alat)
               b(1) = (  1.000000  0.000000  0.000000 )  
               b(2) = (  0.000000  1.000000  0.000000 )  
               b(3) = (  0.000000  0.000000  1.000000 )  


     PseudoPot. # 1 for C  read from file:
     /home/tjsmart/Pseudo/C_ONCV_PBE-1.0.upf
     MD5 check sum: 72b63e32b2fd29504de26a4901699f60
     Pseudo is Norm-conserving, Zval =  4.0
     Generated using ONCVPSP code by D. R. Hamann
     Using radial grid of 1248 points,  4 beta functions with: 
                l(1) =   0
                l(2) =   0
                l(3) =   1
                l(4) =   1

     PseudoPot. # 2 for N  read from file:
     /home/tjsmart/Pseudo/N_ONCV_PBE-1.0.upf
     MD5 check sum: 09890da6b2972017450f7114a6086fad
     Pseudo is Norm-conserving, Zval =  5.0
     Generated using ONCVPSP code by D. R. Hamann
     Using radial grid of 1058 points,  4 beta functions with: 
                l(1) =   0
                l(2) =   0
                l(3) =   1
                l(4) =   1

     atomic species   valence    mass     pseudopotential
        C              4.00    12.01110     C ( 1.00)
        N              5.00    14.00670     N ( 1.00)

     Starting magnetic structure 
     atomic species   magnetization
        C            0.200
        N            0.200

      6 Sym. Ops. (no inversion) found


                                    s                        frac. trans.

      isym =  1     identity                                     

 cryst.   s( 1) = (     1          0          0      )
                  (     0          1          0      )
                  (     0          0          1      )

 cart.    s( 1) = (  1.0000000  0.0000000  0.0000000 )
                  (  0.0000000  1.0000000  0.0000000 )
                  (  0.0000000  0.0000000  1.0000000 )


      isym =  2     120 deg rotation - cart. axis [-1,-1,-1]     

 cryst.   s( 2) = (     0          0          1      )
                  (     1          0          0      )
                  (     0          1          0      )

 cart.    s( 2) = (  0.0000000  1.0000000  0.0000000 )
                  (  0.0000000  0.0000000  1.0000000 )
                  (  1.0000000  0.0000000  0.0000000 )


      isym =  3     120 deg rotation - cart. axis [1,1,1]        

 cryst.   s( 3) = (     0          1          0      )
                  (     0          0          1      )
                  (     1          0          0      )

 cart.    s( 3) = (  0.0000000  0.0000000  1.0000000 )
                  (  1.0000000  0.0000000  0.0000000 )
                  (  0.0000000  1.0000000  0.0000000 )


      isym =  4     inv. 180 deg rotation - cart. axis [1,-1,0]  

 cryst.   s( 4) = (     0          1          0      )
                  (     1          0          0      )
                  (     0          0          1      )

 cart.    s( 4) = (  0.0000000  1.0000000  0.0000000 )
                  (  1.0000000  0.0000000  0.0000000 )
                  (  0.0000000  0.0000000  1.0000000 )


      isym =  5     inv. 180 deg rotation - cart. axis [-1,0,1]  

 cryst.   s( 5) = (     0          0          1      )
                  (     0          1          0      )
                  (     1          0          0      )

 cart.    s( 5) = (  0.0000000  0.0000000  1.0000000 )
                  (  0.0000000  1.0000000  0.0000000 )
                  (  1.0000000  0.0000000  0.0000000 )


      isym =  6     inv. 180 deg rotation - cart. axis [0,1,-1]  

 cryst.   s( 6) = (     1          0          0      )
                  (     0          0          1      )
                  (     0          1          0      )

 cart.    s( 6) = (  1.0000000  0.0000000  0.0000000 )
                  (  0.0000000  0.0000000  1.0000000 )
                  (  0.0000000  1.0000000  0.0000000 )


     point group C_3v (3m)  
     there are  3 classes
     the character table:

       E     2C3   3s_v 
A_1    1.00  1.00  1.00
A_2    1.00  1.00 -1.00
E      2.00 -1.00  0.00

     the symmetry operations in each class and the name of the first element:

     E        1
          identity                                               
     2C3      2    3
          120 deg rotation - cart. axis [-1,-1,-1]               
     3s_v     4    5    6
          inv. 180 deg rotation - cart. axis [1,-1,0]            

   Cartesian axes

     site n.     atom                  positions (alat units)
         1           C   tau(   1) = (   0.3757402   0.3757402   0.8736803  )
         2           C   tau(   2) = (   0.5000706   0.0002101   0.0002101  )
         3           C   tau(   3) = (   0.5000485  -0.0001014   0.5000485  )
         4           C   tau(   4) = (   0.0002101   0.5000706   0.0002101  )
         5           C   tau(   5) = (  -0.0001014   0.5000485   0.5000485  )
         6           C   tau(   6) = (  -0.0001125  -0.0001125  -0.0001125  )
         7           C   tau(   7) = (   0.0002101   0.0002101   0.5000706  )
         8           C   tau(   8) = (   0.2502416   0.2502416  -0.0012010  )
         9           C   tau(   9) = (   0.2506951   0.2506951   0.4948995  )
        10           C   tau(  10) = (   0.2503856   0.7490365   0.0009894  )
        11           C   tau(  11) = (   0.2525049   0.7478357   0.5016752  )
        12           C   tau(  12) = (   0.7490365   0.2503856   0.0009894  )
        13           C   tau(  13) = (   0.7478357   0.2525049   0.5016752  )
        14           C   tau(  14) = (   0.7496389   0.7496389  -0.0002616  )
        15           C   tau(  15) = (   0.5000485   0.5000485  -0.0001014  )
        16           C   tau(  16) = (   0.7490868   0.7490868   0.4987417  )
        17           C   tau(  17) = (   0.5016752   0.2525049   0.7478357  )
        18           C   tau(  18) = (   0.5016752   0.7478357   0.2525049  )
        19           C   tau(  19) = (   0.4987417   0.7490868   0.7490868  )
        20           C   tau(  20) = (  -0.0012010   0.2502416   0.2502416  )
        21           C   tau(  21) = (   0.0009894   0.2503856   0.7490365  )
        22           C   tau(  22) = (   0.0009894   0.7490365   0.2503856  )
        23           C   tau(  23) = (  -0.0002616   0.7496389   0.7496389  )
        24           C   tau(  24) = (   0.2506951   0.4948995   0.2506951  )
        25           C   tau(  25) = (   0.2525049   0.5016752   0.7478357  )
        26           C   tau(  26) = (   0.2502416  -0.0012010   0.2502416  )
        27           C   tau(  27) = (   0.2503856   0.0009894   0.7490365  )
        28           C   tau(  28) = (   0.7478357   0.5016752   0.2525049  )
        29           C   tau(  29) = (   0.7490868   0.4987417   0.7490868  )
        30           C   tau(  30) = (   0.4948995   0.2506951   0.2506951  )
        31           C   tau(  31) = (   0.7490365   0.0009894   0.2503856  )
        32           C   tau(  32) = (   0.6246399   0.8743770   0.6246399  )
        33           C   tau(  33) = (   0.6348385   0.3670190   0.6348385  )
        34           C   tau(  34) = (   0.3758777   0.8762036   0.8762036  )
        35           C   tau(  35) = (   0.3757402   0.8736803   0.3757402  )
        36           C   tau(  36) = (   0.8762036   0.3758777   0.8762036  )
        37           C   tau(  37) = (   0.8736803   0.3757402   0.3757402  )
        38           C   tau(  38) = (   0.8746919   0.8746919   0.8746919  )
        39           C   tau(  39) = (   0.8762036   0.8762036   0.3758777  )
        40           C   tau(  40) = (   0.1253825   0.1253825   0.8742599  )
        41           C   tau(  41) = (   0.1239082   0.1239082   0.3748667  )
        42           C   tau(  42) = (   0.1243035   0.6245338   0.8758697  )
        43           C   tau(  43) = (   0.1270560   0.6229702   0.3763156  )
        44           C   tau(  44) = (   0.6245338   0.1243035   0.8758697  )
        45           C   tau(  45) = (   0.6229702   0.1270560   0.3763156  )
        46           C   tau(  46) = (   0.6245338   0.8758697   0.1243035  )
        47           C   tau(  47) = (   0.6246399   0.6246399   0.8743770  )
        48           C   tau(  48) = (   0.3748667   0.1239082   0.1239082  )
        49           C   tau(  49) = (   0.3763156   0.1270560   0.6229702  )
        50           C   tau(  50) = (   0.3763156   0.6229702   0.1270560  )
        51           C   tau(  51) = (   0.3670190   0.6348385   0.6348385  )
        52           C   tau(  52) = (   0.8742599   0.1253825   0.1253825  )
        53           C   tau(  53) = (   0.8758697   0.1243035   0.6245338  )
        54           C   tau(  54) = (   0.8758697   0.6245338   0.1243035  )
        55           C   tau(  55) = (   0.8743770   0.6246399   0.6246399  )
        56           C   tau(  56) = (   0.1239082   0.3748667   0.1239082  )
        57           C   tau(  57) = (   0.1270560   0.3763156   0.6229702  )
        58           C   tau(  58) = (   0.1253825   0.8742599   0.1253825  )
        59           C   tau(  59) = (   0.1243035   0.8758697   0.6245338  )
        60           C   tau(  60) = (   0.6229702   0.3763156   0.1270560  )
        61           C   tau(  61) = (   0.6348385   0.6348385   0.3670190  )
        62           C   tau(  62) = (   0.7496389  -0.0002616   0.7496389  )
        63           N   tau(  63) = (   0.3649724   0.3649724   0.3649724  )

   Crystallographic axes

     site n.     atom                  positions (cryst. coord.)
         1           C   tau(   1) = (  0.3757402  0.3757402  0.8736803  )
         2           C   tau(   2) = (  0.5000706  0.0002101  0.0002101  )
         3           C   tau(   3) = (  0.5000485 -0.0001014  0.5000485  )
         4           C   tau(   4) = (  0.0002101  0.5000706  0.0002101  )
         5           C   tau(   5) = ( -0.0001014  0.5000485  0.5000485  )
         6           C   tau(   6) = ( -0.0001125 -0.0001125 -0.0001125  )
         7           C   tau(   7) = (  0.0002101  0.0002101  0.5000706  )
         8           C   tau(   8) = (  0.2502416  0.2502416 -0.0012010  )
         9           C   tau(   9) = (  0.2506951  0.2506951  0.4948995  )
        10           C   tau(  10) = (  0.2503856  0.7490365  0.0009894  )
        11           C   tau(  11) = (  0.2525049  0.7478357  0.5016752  )
        12           C   tau(  12) = (  0.7490365  0.2503856  0.0009894  )
        13           C   tau(  13) = (  0.7478357  0.2525049  0.5016752  )
        14           C   tau(  14) = (  0.7496389  0.7496389 -0.0002616  )
        15           C   tau(  15) = (  0.5000485  0.5000485 -0.0001014  )
        16           C   tau(  16) = (  0.7490868  0.7490868  0.4987417  )
        17           C   tau(  17) = (  0.5016752  0.2525049  0.7478357  )
        18           C   tau(  18) = (  0.5016752  0.7478357  0.2525049  )
        19           C   tau(  19) = (  0.4987417  0.7490868  0.7490868  )
        20           C   tau(  20) = ( -0.0012010  0.2502416  0.2502416  )
        21           C   tau(  21) = (  0.0009894  0.2503856  0.7490365  )
        22           C   tau(  22) = (  0.0009894  0.7490365  0.2503856  )
        23           C   tau(  23) = ( -0.0002616  0.7496389  0.7496389  )
        24           C   tau(  24) = (  0.2506951  0.4948995  0.2506951  )
        25           C   tau(  25) = (  0.2525049  0.5016752  0.7478357  )
        26           C   tau(  26) = (  0.2502416 -0.0012010  0.2502416  )
        27           C   tau(  27) = (  0.2503856  0.0009894  0.7490365  )
        28           C   tau(  28) = (  0.7478357  0.5016752  0.2525049  )
        29           C   tau(  29) = (  0.7490868  0.4987417  0.7490868  )
        30           C   tau(  30) = (  0.4948995  0.2506951  0.2506951  )
        31           C   tau(  31) = (  0.7490365  0.0009894  0.2503856  )
        32           C   tau(  32) = (  0.6246399  0.8743770  0.6246399  )
        33           C   tau(  33) = (  0.6348385  0.3670190  0.6348385  )
        34           C   tau(  34) = (  0.3758777  0.8762036  0.8762036  )
        35           C   tau(  35) = (  0.3757402  0.8736803  0.3757402  )
        36           C   tau(  36) = (  0.8762036  0.3758777  0.8762036  )
        37           C   tau(  37) = (  0.8736803  0.3757402  0.3757402  )
        38           C   tau(  38) = (  0.8746919  0.8746919  0.8746919  )
        39           C   tau(  39) = (  0.8762036  0.8762036  0.3758777  )
        40           C   tau(  40) = (  0.1253825  0.1253825  0.8742599  )
        41           C   tau(  41) = (  0.1239082  0.1239082  0.3748667  )
        42           C   tau(  42) = (  0.1243035  0.6245338  0.8758697  )
        43           C   tau(  43) = (  0.1270560  0.6229702  0.3763156  )
        44           C   tau(  44) = (  0.6245338  0.1243035  0.8758697  )
        45           C   tau(  45) = (  0.6229702  0.1270560  0.3763156  )
        46           C   tau(  46) = (  0.6245338  0.8758697  0.1243035  )
        47           C   tau(  47) = (  0.6246399  0.6246399  0.8743770  )
        48           C   tau(  48) = (  0.3748667  0.1239082  0.1239082  )
        49           C   tau(  49) = (  0.3763156  0.1270560  0.6229702  )
        50           C   tau(  50) = (  0.3763156  0.6229702  0.1270560  )
        51           C   tau(  51) = (  0.3670190  0.6348385  0.6348385  )
        52           C   tau(  52) = (  0.8742599  0.1253825  0.1253825  )
        53           C   tau(  53) = (  0.8758697  0.1243035  0.6245338  )
        54           C   tau(  54) = (  0.8758697  0.6245338  0.1243035  )
        55           C   tau(  55) = (  0.8743770  0.6246399  0.6246399  )
        56           C   tau(  56) = (  0.1239082  0.3748667  0.1239082  )
        57           C   tau(  57) = (  0.1270560  0.3763156  0.6229702  )
        58           C   tau(  58) = (  0.1253825  0.8742599  0.1253825  )
        59           C   tau(  59) = (  0.1243035  0.8758697  0.6245338  )
        60           C   tau(  60) = (  0.6229702  0.3763156  0.1270560  )
        61           C   tau(  61) = (  0.6348385  0.6348385  0.3670190  )
        62           C   tau(  62) = (  0.7496389 -0.0002616  0.7496389  )
        63           N   tau(  63) = (  0.3649724  0.3649724  0.3649724  )

     number of k points=     6  Marzari-Vanderbilt smearing, width (Ry)=  0.0010
                       cart. coord. in units 2pi/alat
        k(    1) = (   0.0000000   0.0000000   0.0000000), wk =   0.0370370
        k(    2) = (   0.0000000   0.0000000   0.3333333), wk =   0.2222222
        k(    3) = (   0.0000000   0.3333333   0.3333333), wk =   0.2222222
        k(    4) = (   0.3333333   0.3333333   0.3333333), wk =   0.0740741
        k(    5) = (  -0.3333333   0.0000000   0.3333333), wk =   0.2222222
        k(    6) = (   0.3333333  -0.3333333   0.3333333), wk =   0.2222222

                       cryst. coord.
        k(    1) = (   0.0000000   0.0000000   0.0000000), wk =   0.0370370
        k(    2) = (   0.0000000   0.0000000   0.3333333), wk =   0.2222222
        k(    3) = (   0.0000000   0.3333333   0.3333333), wk =   0.2222222
        k(    4) = (   0.3333333   0.3333333   0.3333333), wk =   0.0740741
        k(    5) = (  -0.3333333   0.0000000   0.3333333), wk =   0.2222222
        k(    6) = (   0.3333333  -0.3333333   0.3333333), wk =   0.2222222

     Dense  grid:   194039 G-vectors     FFT dimensions: (  72,  72,  72)

     Estimated max dynamical RAM per process >      60.23MB

     Estimated total allocated dynamical RAM >    5782.56MB
     Generating pointlists ...
     new r_m :   0.0855 (alat units)  1.1536 (a.u.) for type    1
     new r_m :   0.0855 (alat units)  1.1536 (a.u.) for type    2

     Initial potential from superposition of free atoms

     starting charge  252.99722, renormalised to  254.00000
     Starting wfc are  252 randomized atomic wfcs

     total cpu time spent up to now is        3.7 secs

     per-process dynamical memory:    59.5 Mb

     Self-consistent Calculation

     iteration #  1     ecut=    70.00 Ry     beta=0.50
     Davidson diagonalization with overlap
     ethr =  1.00E-02,  avg # of iterations =  3.0

     total cpu time spent up to now is        6.0 secs

     total energy              =    -724.34415509 Ry
     Harris-Foulkes estimate   =    -724.78323172 Ry
     estimated scf accuracy    <       4.22124760 Ry

     total magnetization       =     0.00 Bohr mag/cell
     absolute magnetization    =     0.90 Bohr mag/cell

     iteration #  2     ecut=    70.00 Ry     beta=0.50
     Davidson diagonalization with overlap
     ethr =  1.66E-03,  avg # of iterations =  2.0

     total cpu time spent up to now is        7.4 secs

     total energy              =    -724.66884113 Ry
     Harris-Foulkes estimate   =    -724.58507885 Ry
     estimated scf accuracy    <       0.66867150 Ry

     total magnetization       =    -0.00 Bohr mag/cell
     absolute magnetization    =     0.35 Bohr mag/cell

     iteration #  3     ecut=    70.00 Ry     beta=0.50
     Davidson diagonalization with overlap
     ethr =  2.63E-04,  avg # of iterations =  8.9

     total cpu time spent up to now is       11.7 secs

     total energy              =    -724.73751534 Ry
     Harris-Foulkes estimate   =    -724.77898725 Ry
     estimated scf accuracy    <       0.15205318 Ry

     total magnetization       =    -0.00 Bohr mag/cell
     absolute magnetization    =     0.11 Bohr mag/cell

     iteration #  4     ecut=    70.00 Ry     beta=0.50
     Davidson diagonalization with overlap
     ethr =  5.99E-05,  avg # of iterations =  8.6

     total cpu time spent up to now is       15.6 secs

     total energy              =    -724.77587522 Ry
     Harris-Foulkes estimate   =    -724.77338498 Ry
     estimated scf accuracy    <       0.01296543 Ry

     total magnetization       =     0.00 Bohr mag/cell
     absolute magnetization    =     0.07 Bohr mag/cell

     iteration #  5     ecut=    70.00 Ry     beta=0.50
     Davidson diagonalization with overlap
     ethr =  5.10E-06,  avg # of iterations =  8.7

     total cpu time spent up to now is       20.5 secs

     total energy              =    -724.77911134 Ry
     Harris-Foulkes estimate   =    -724.77887685 Ry
     estimated scf accuracy    <       0.00151297 Ry

     total magnetization       =     0.00 Bohr mag/cell
     absolute magnetization    =     0.04 Bohr mag/cell

     iteration #  6     ecut=    70.00 Ry     beta=0.50
     Davidson diagonalization with overlap
     ethr =  5.96E-07,  avg # of iterations =  5.8

     total cpu time spent up to now is       23.6 secs

     total energy              =    -724.77936109 Ry
     Harris-Foulkes estimate   =    -724.77938967 Ry
     estimated scf accuracy    <       0.00020058 Ry

     total magnetization       =    -0.00 Bohr mag/cell
     absolute magnetization    =     0.02 Bohr mag/cell

     iteration #  7     ecut=    70.00 Ry     beta=0.50
     Davidson diagonalization with overlap
     ethr =  7.90E-08,  avg # of iterations =  3.0

     total cpu time spent up to now is       25.6 secs

     total energy              =    -724.77941854 Ry
     Harris-Foulkes estimate   =    -724.77942763 Ry
     estimated scf accuracy    <       0.00003648 Ry

     total magnetization       =    -0.00 Bohr mag/cell
     absolute magnetization    =     0.01 Bohr mag/cell

     iteration #  8     ecut=    70.00 Ry     beta=0.50
     Davidson diagonalization with overlap
     ethr =  1.44E-08,  avg # of iterations =  2.7

     total cpu time spent up to now is       27.4 secs

     total energy              =    -724.77942640 Ry
     Harris-Foulkes estimate   =    -724.77942637 Ry
     estimated scf accuracy    <       0.00000292 Ry

     total magnetization       =     0.00 Bohr mag/cell
     absolute magnetization    =     0.01 Bohr mag/cell

     iteration #  9     ecut=    70.00 Ry     beta=0.50
     Davidson diagonalization with overlap
     ethr =  1.15E-09,  avg # of iterations =  3.2
 
     Magnetic moment per site:
     atom:    1    charge:    1.8289    magn:    0.0000    constr:    0.0000
     atom:    2    charge:    1.8460    magn:   -0.0000    constr:    0.0000
     atom:    3    charge:    1.8355    magn:    0.0000    constr:    0.0000
     atom:    4    charge:    1.8460    magn:   -0.0000    constr:    0.0000
     atom:    5    charge:    1.8355    magn:    0.0000    constr:    0.0000
     atom:    6    charge:    1.8248    magn:    0.0000    constr:    0.0000
     atom:    7    charge:    1.8460    magn:   -0.0000    constr:    0.0000
     atom:    8    charge:    1.8284    magn:    0.0000    constr:    0.0000
     atom:    9    charge:    1.8071    magn:   -0.0001    constr:    0.0000
     atom:   10    charge:    1.8226    magn:    0.0000    constr:    0.0000
     atom:   11    charge:    1.8339    magn:    0.0000    constr:    0.0000
     atom:   12    charge:    1.8226    magn:    0.0000    constr:    0.0000
     atom:   13    charge:    1.8339    magn:    0.0000    constr:    0.0000
     atom:   14    charge:    1.8285    magn:    0.0000    constr:    0.0000
     atom:   15    charge:    1.8355    magn:    0.0000    constr:    0.0000
     atom:   16    charge:    1.8370    magn:    0.0000    constr:    0.0000
     atom:   17    charge:    1.8339    magn:    0.0000    constr:    0.0000
     atom:   18    charge:    1.8339    magn:    0.0000    constr:    0.0000
     atom:   19    charge:    1.8370    magn:    0.0000    constr:    0.0000
     atom:   20    charge:    1.8284    magn:    0.0000    constr:    0.0000
     atom:   21    charge:    1.8226    magn:    0.0000    constr:    0.0000
     atom:   22    charge:    1.8226    magn:    0.0000    constr:    0.0000
     atom:   23    charge:    1.8285    magn:    0.0000    constr:    0.0000
     atom:   24    charge:    1.8071    magn:   -0.0001    constr:    0.0000
     atom:   25    charge:    1.8339    magn:    0.0000    constr:    0.0000
     atom:   26    charge:    1.8284    magn:    0.0000    constr:    0.0000
     atom:   27    charge:    1.8226    magn:    0.0000    constr:    0.0000
     atom:   28    charge:    1.8339    magn:    0.0000    constr:    0.0000
     atom:   29    charge:    1.8370    magn:    0.0000    constr:    0.0000
     atom:   30    charge:    1.8071    magn:   -0.0001    constr:    0.0000
     atom:   31    charge:    1.8226    magn:    0.0000    constr:    0.0000
     atom:   32    charge:    1.8283    magn:    0.0000    constr:    0.0000
     atom:   33    charge:    1.8380    magn:    0.0000    constr:    0.0000
     atom:   34    charge:    1.8262    magn:    0.0000    constr:    0.0000
     atom:   35    charge:    1.8289    magn:    0.0000    constr:    0.0000
     atom:   36    charge:    1.8262    magn:    0.0000    constr:    0.0000
     atom:   37    charge:    1.8289    magn:    0.0000    constr:    0.0000
     atom:   38    charge:    1.8304    magn:    0.0000    constr:    0.0000
     atom:   39    charge:    1.8262    magn:    0.0000    constr:    0.0000
     atom:   40    charge:    1.8313    magn:    0.0000    constr:    0.0000
     atom:   41    charge:    1.8385    magn:    0.0000    constr:    0.0000
     atom:   42    charge:    1.8273    magn:    0.0000    constr:    0.0000
     atom:   43    charge:    1.8248    magn:    0.0000    constr:    0.0000
     atom:   44    charge:    1.8273    magn:    0.0000    constr:    0.0000
     atom:   45    charge:    1.8248    magn:    0.0000    constr:    0.0000
     atom:   46    charge:    1.8273    magn:    0.0000    constr:    0.0000
     atom:   47    charge:    1.8283    magn:    0.0000    constr:    0.0000
     atom:   48    charge:    1.8385    magn:    0.0000    constr:    0.0000
     atom:   49    charge:    1.8248    magn:    0.0000    constr:    0.0000
     atom:   50    charge:    1.8248    magn:    0.0000    constr:    0.0000
     atom:   51    charge:    1.8380    magn:    0.0000    constr:    0.0000
     atom:   52    charge:    1.8313    magn:    0.0000    constr:    0.0000
     atom:   53    charge:    1.8273    magn:    0.0000    constr:    0.0000
     atom:   54    charge:    1.8273    magn:    0.0000    constr:    0.0000
     atom:   55    charge:    1.8283    magn:    0.0000    constr:    0.0000
     atom:   56    charge:    1.8385    magn:    0.0000    constr:    0.0000
     atom:   57    charge:    1.8248    magn:    0.0000    constr:    0.0000
     atom:   58    charge:    1.8313    magn:    0.0000    constr:    0.0000
     atom:   59    charge:    1.8273    magn:    0.0000    constr:    0.0000
     atom:   60    charge:    1.8248    magn:    0.0000    constr:    0.0000
     atom:   61    charge:    1.8380    magn:    0.0000    constr:    0.0000
     atom:   62    charge:    1.8285    magn:    0.0000    constr:    0.0000
     atom:   63    charge:    2.9195    magn:    0.0007    constr:    0.0000

     total cpu time spent up to now is       29.7 secs

     End of self-consistent calculation

 ------ SPIN UP ------------


          k = 0.0000 0.0000 0.0000 ( 24207 PWs)   bands (ev):

    -8.5598  -6.9613  -6.2773  -6.2773  -6.1652  -6.1652  -5.8848  -4.9337
    -4.1371  -4.1371  -4.1069  -4.1069  -4.0270  -4.0270  -4.0024  -3.9407
    -3.8759  -3.8759  -3.3617  -2.9685  -2.6774  -2.6774  -2.0904  -0.3801
    -0.3801  -0.3536  -0.3212  -0.1044   0.1655   0.1655   0.2766   0.2766
     0.3508   0.5883   0.8054   0.8054   0.9623   0.9623   0.9912   1.0123
     1.0123   1.0337   1.3265   1.3265   3.0517   3.8992   3.8992   4.0243
     4.2014   4.2046   4.2046   4.2195   4.2474   4.2474   4.4066   4.4066
     4.4601   4.4601   4.5672   4.6331   4.6331   4.6356   4.6444   4.7351
     4.7351   4.8676   4.9275   4.9275   5.0392   5.1974   5.1974   5.2604
     5.3197   5.3197   5.3579   5.3905   5.3905   6.0032   6.0032   6.0296
     6.5930   6.5930   6.7009   6.9702   7.0072   7.0072   7.5121   8.2988
     8.2988   8.3646   8.4358   8.4358   8.6159   8.6159   8.7651   8.7829
     8.7829   8.7851   8.8387   8.8387   8.8668   9.2281   9.2347   9.2347
     9.6567   9.6567   9.8595   9.8734   9.8734   9.8776   9.9020   9.9361
     9.9361   9.9418   9.9664   9.9664  10.0657  10.0657  10.2266  10.2266
    10.2796  11.0588  12.2631  12.4370  12.4370  13.9177  15.2949  15.2949
    17.3074  17.3338  17.3338  17.4928  17.5203  17.5203  17.8138  17.8792
    17.8792  17.9677  17.9677  18.3433  18.8955  18.8955  18.9270  20.6287
    20.7598  20.7598  20.8030  20.8860  20.8860  20.9648  20.9648  20.9950

     occupation numbers 
     1.0000   1.0000   1.0000   1.0000   1.0000   1.0000   1.0000   1.0000
     1.0000   1.0000   1.0000   1.0000   1.0000   1.0000   1.0000   1.0000
     1.0000   1.0000   1.0000   1.0000   1.0000   1.0000   1.0000   1.0000
     1.0000   1.0000   1.0000   1.0000   1.0000   1.0000   1.0000   1.0000
     1.0000   1.0000   1.0000   1.0000   1.0000   1.0000   1.0000   1.0000
     1.0000   1.0000   1.0000   1.0000   1.0000   1.0000   1.0000   1.0000
     1.0000   1.0000   1.0000   1.0000   1.0000   1.0000   1.0000   1.0000
     1.0000   1.0000   1.0000   1.0000   1.0000   1.0000   1.0000   1.0000
     1.0000   1.0000   1.0000   1.0000   1.0000   1.0000   1.0000   1.0000
     1.0000   1.0000   1.0000   1.0000   1.0000   1.0000   1.0000   1.0000
     1.0000   1.0000   1.0000   1.0000   1.0000   1.0000   1.0000   1.0000
     1.0000   1.0000   1.0000   1.0000   1.0000   1.0000   1.0000   1.0000
     1.0000   1.0000   1.0000   1.0000   1.0000   1.0000   1.0000   1.0000
     1.0000   1.0000   1.0000   1.0000   1.0000   1.0000   1.0000   1.0000
     1.0000   1.0000   1.0000   1.0000   1.0000   1.0000   1.0000   1.0000
     1.0000   1.0000   1.0000   1.0000   1.0000   1.0000   0.0000   0.0000
     0.0000   0.0000   0.0000   0.0000   0.0000   0.0000   0.0000   0.0000
     0.0000   0.0000   0.0000   0.0000   0.0000   0.0000   0.0000   0.0000
     0.0000   0.0000   0.0000   0.0000   0.0000   0.0000   0.0000   0.0000

          k = 0.0000 0.0000 0.3333 ( 24280 PWs)   bands (ev):

    -8.3299  -7.5607  -6.5650  -6.0320  -5.9247  -5.8185  -5.4923  -5.2913
    -5.1701  -4.9777  -4.5115  -4.1252  -3.8064  -3.7912  -3.6830  -3.4401
    -3.2018  -3.1496  -2.9272  -2.6016  -2.5030  -2.3836  -2.3205  -1.7717
    -0.8378  -0.6908  -0.5805  -0.3411   0.1759   0.2630   0.3648   0.4027
     0.4759   0.5598   0.5739   0.6620   0.7254   0.7441   0.9852   1.4774
     1.9878   2.0136   2.1559   2.2291   2.4190   2.4811   2.4872   2.7475
     2.9484   3.0023   3.1677   3.1724   3.8935   3.9704   4.0547   4.0665
     4.2947   4.3696   4.5092   4.5536   5.0793   5.1082   5.1421   5.2049
     5.2107   5.5906   5.6155   5.7158   5.7483   6.0662   6.1089   6.1874
     6.1897   6.3252   6.3970   6.4579   6.5080   6.6157   6.6247   6.7474
     6.7642   6.8863   6.9089   6.9363   7.1470   7.1582   7.1824   7.2653
     7.4126   7.4783   7.6750   7.7738   7.8259   8.0565   8.1427   8.2784
     8.3036   8.4445   8.6746   8.7133   8.7687   9.0991   9.1957   9.3473
     9.3803   9.6279   9.6582   9.7126   9.7866   9.9207   9.9342   9.9574
     9.9666  10.0208  10.1086  10.1112  10.1802  10.2669  10.2692  10.3595
    10.3712  11.3705  11.7110  11.7197  12.0342  13.6559  14.9857  15.1596
    17.1901  17.2993  17.9531  18.3221  18.3545  18.4910  18.5061  18.6113
    18.8237  18.8320  18.9732  19.0804  19.2091  19.8307  19.8616  20.4994
    20.6642  20.6890  20.7862  20.7932  20.8261  20.8708  20.9082  20.9423

     occupation numbers 
     1.0000   1.0000   1.0000   1.0000   1.0000   1.0000   1.0000   1.0000
     1.0000   1.0000   1.0000   1.0000   1.0000   1.0000   1.0000   1.0000
     1.0000   1.0000   1.0000   1.0000   1.0000   1.0000   1.0000   1.0000
     1.0000   1.0000   1.0000   1.0000   1.0000   1.0000   1.0000   1.0000
     1.0000   1.0000   1.0000   1.0000   1.0000   1.0000   1.0000   1.0000
     1.0000   1.0000   1.0000   1.0000   1.0000   1.0000   1.0000   1.0000
     1.0000   1.0000   1.0000   1.0000   1.0000   1.0000   1.0000   1.0000
     1.0000   1.0000   1.0000   1.0000   1.0000   1.0000   1.0000   1.0000
     1.0000   1.0000   1.0000   1.0000   1.0000   1.0000   1.0000   1.0000
     1.0000   1.0000   1.0000   1.0000   1.0000   1.0000   1.0000   1.0000
     1.0000   1.0000   1.0000   1.0000   1.0000   1.0000   1.0000   1.0000
     1.0000   1.0000   1.0000   1.0000   1.0000   1.0000   1.0000   1.0000
     1.0000   1.0000   1.0000   1.0000   1.0000   1.0000   1.0000   1.0000
     1.0000   1.0000   1.0000   1.0000   1.0000   1.0000   1.0000   1.0000
     1.0000   1.0000   1.0000   1.0000   1.0000   1.0000   1.0000   1.0000
     1.0000   1.0000   1.0000   1.0000   1.0000   1.0000   1.0000   0.0000
     0.0000   0.0000   0.0000   0.0000   0.0000   0.0000   0.0000   0.0000
     0.0000   0.0000   0.0000   0.0000   0.0000   0.0000   0.0000   0.0000
     0.0000   0.0000   0.0000   0.0000   0.0000   0.0000   0.0000   0.0000

          k = 0.0000 0.3333 0.3333 ( 24236 PWs)   bands (ev):

    -8.1149  -7.3824  -7.2265  -6.5698  -5.9558  -5.6668  -5.3279  -5.0085
    -4.9919  -4.8422  -4.4918  -4.2557  -4.2197  -3.9359  -3.5359  -3.5073
    -2.7706  -2.3719  -2.3281  -2.3184  -2.1976  -2.1870  -2.0442  -1.8831
    -1.4896  -1.3150  -1.0931  -0.9185  -0.5374  -0.0235   0.0618   0.1291
     0.1816   0.4812   0.6908   1.1881   1.2052   1.3131   1.3838   1.4000
     1.4546   1.4608   1.9465   2.0649   2.1362   2.4056   2.7281   2.8253
     2.9716   3.5149   3.6543   3.7017   3.7803   3.8175   3.9738   4.0427
     4.1223   4.5513   4.6771   4.8256   5.0353   5.0474   5.1446   5.3003
     5.3472   5.5917   5.6543   5.6910   5.7495   5.9773   6.0288   6.0790
     6.1425   6.2352   6.2764   6.4914   6.5445   6.6025   6.6557   6.8583
     6.9174   6.9482   7.0435   7.0458   7.2320   7.2914   7.4986   7.7064
     7.9358   7.9473   8.0735   8.0964   8.1193   8.2240   8.2645   8.3376
     8.3440   8.4047   8.5347   8.6387   8.6991   8.7055   8.8427   8.8957
     9.0773   9.2026   9.2414   9.3119   9.4683   9.4794   9.5763   9.6387
     9.7060   9.7917   9.9082  10.0455  10.0514  10.1280  10.4404  10.7581
    11.0165  11.2114  11.5485  11.8598  12.2289  13.4604  14.9203  15.2249
    18.0825  18.1945  18.2271  18.3048  18.3598  18.8339  18.8547  18.9966
    19.1809  19.2292  19.4419  19.4780  19.6992  19.8163  19.9728  20.0213
    20.1979  20.4520  20.4819  20.5052  20.5656  20.5998  20.6143  20.6527

     occupation numbers 
     1.0000   1.0000   1.0000   1.0000   1.0000   1.0000   1.0000   1.0000
     1.0000   1.0000   1.0000   1.0000   1.0000   1.0000   1.0000   1.0000
     1.0000   1.0000   1.0000   1.0000   1.0000   1.0000   1.0000   1.0000
     1.0000   1.0000   1.0000   1.0000   1.0000   1.0000   1.0000   1.0000
     1.0000   1.0000   1.0000   1.0000   1.0000   1.0000   1.0000   1.0000
     1.0000   1.0000   1.0000   1.0000   1.0000   1.0000   1.0000   1.0000
     1.0000   1.0000   1.0000   1.0000   1.0000   1.0000   1.0000   1.0000
     1.0000   1.0000   1.0000   1.0000   1.0000   1.0000   1.0000   1.0000
     1.0000   1.0000   1.0000   1.0000   1.0000   1.0000   1.0000   1.0000
     1.0000   1.0000   1.0000   1.0000   1.0000   1.0000   1.0000   1.0000
     1.0000   1.0000   1.0000   1.0000   1.0000   1.0000   1.0000   1.0000
     1.0000   1.0000   1.0000   1.0000   1.0000   1.0000   1.0000   1.0000
     1.0000   1.0000   1.0000   1.0000   1.0000   1.0000   1.0000   1.0000
     1.0000   1.0000   1.0000   1.0000   1.0000   1.0000   1.0000   1.0000
     1.0000   1.0000   1.0000   1.0000   1.0000   1.0000   1.0000   1.0000
     1.0000   1.0000   1.0000   1.0000   1.0000   1.0000   1.0000   0.0000
     0.0000   0.0000   0.0000   0.0000   0.0000   0.0000   0.0000   0.0000
     0.0000   0.0000   0.0000   0.0000   0.0000   0.0000   0.0000   0.0000
     0.0000   0.0000   0.0000   0.0000   0.0000   0.0000   0.0000   0.0000

          k = 0.3333 0.3333 0.3333 ( 24303 PWs)   bands (ev):

    -7.9196  -7.2100  -6.9781  -6.9781  -6.2914  -6.2203  -6.2203  -5.4526
    -4.1970  -4.0299  -4.0299  -3.5256  -3.3845  -3.3845  -3.3208  -3.3208
    -3.2990  -2.9026  -2.6690  -2.6690  -1.9457  -1.9052  -1.9052  -1.5366
    -1.4497  -1.4497  -1.4021  -1.4021  -1.3334  -1.2219  -1.2219   0.0708
     0.8451   0.8451   0.9812   0.9937   0.9937   1.3054   1.8385   1.8385
     1.8712   1.9099   2.0078   2.0078   2.5976   2.5976   2.6004   2.7033
     2.7320   2.7320   3.1464   3.1464   3.5386   4.0787   4.2930   4.2930
     4.8106   4.9288   4.9288   4.9597   5.0899   5.0899   5.1517   5.3092
     5.3092   5.3983   5.5096   5.5096   5.5808   5.5808   5.6311   6.3860
     6.7261   6.7261   6.9599   6.9980   6.9980   7.0054   7.0916   7.0916
     7.1969   7.1969   7.2499   7.2542   7.2652   7.2652   7.3654   7.3654
     7.3751   7.4966   7.7300   7.7300   7.9228   7.9228   7.9553   8.0004
     8.1860   8.1860   8.2893   8.3027   8.3027   8.4374   8.4529   8.4529
     8.6832   8.6832   8.8597   9.0707   9.1084   9.5389   9.5389   9.7895
     9.7895  10.4892  10.4892  10.5103  10.5843  10.9521  10.9521  11.2623
    11.2623  11.2998  11.4906  11.6677  11.6677  13.3714  15.2183  15.2183
    18.1564  18.2440  18.2440  18.4690  18.6428  18.6428  19.2458  19.3993
    19.3993  19.5452  19.5452  19.5748  19.6281  19.6281  19.6775  19.7427
    19.7428  19.8636  19.9215  19.9216  20.0063  20.0067  20.0255  20.1645

     occupation numbers 
     1.0000   1.0000   1.0000   1.0000   1.0000   1.0000   1.0000   1.0000
     1.0000   1.0000   1.0000   1.0000   1.0000   1.0000   1.0000   1.0000
     1.0000   1.0000   1.0000   1.0000   1.0000   1.0000   1.0000   1.0000
     1.0000   1.0000   1.0000   1.0000   1.0000   1.0000   1.0000   1.0000
     1.0000   1.0000   1.0000   1.0000   1.0000   1.0000   1.0000   1.0000
     1.0000   1.0000   1.0000   1.0000   1.0000   1.0000   1.0000   1.0000
     1.0000   1.0000   1.0000   1.0000   1.0000   1.0000   1.0000   1.0000
     1.0000   1.0000   1.0000   1.0000   1.0000   1.0000   1.0000   1.0000
     1.0000   1.0000   1.0000   1.0000   1.0000   1.0000   1.0000   1.0000
     1.0000   1.0000   1.0000   1.0000   1.0000   1.0000   1.0000   1.0000
     1.0000   1.0000   1.0000   1.0000   1.0000   1.0000   1.0000   1.0000
     1.0000   1.0000   1.0000   1.0000   1.0000   1.0000   1.0000   1.0000
     1.0000   1.0000   1.0000   1.0000   1.0000   1.0000   1.0000   1.0000
     1.0000   1.0000   1.0000   1.0000   1.0000   1.0000   1.0000   1.0000
     1.0000   1.0000   1.0000   1.0000   1.0000   1.0000   1.0000   1.0000
     1.0000   1.0000   1.0000   1.0000   1.0000   1.0000   0.0000   0.0000
     0.0000   0.0000   0.0000   0.0000   0.0000   0.0000   0.0000   0.0000
     0.0000   0.0000   0.0000   0.0000   0.0000   0.0000   0.0000   0.0000
     0.0000   0.0000   0.0000   0.0000   0.0000   0.0000   0.0000   0.0000

          k =-0.3333 0.0000 0.3333 ( 24236 PWs)   bands (ev):

    -8.1010  -7.4999  -7.1012  -6.5565  -5.9940  -5.6724  -5.3663  -5.0292
    -4.9292  -4.7647  -4.5140  -4.2931  -4.2256  -4.0430  -3.5870  -3.3306
    -2.7655  -2.4027  -2.3611  -2.2913  -2.1927  -2.1659  -2.0982  -1.6560
    -1.6382  -1.3108  -1.1143  -0.9846  -0.5912   0.0106   0.0777   0.1183
     0.2694   0.4925   0.8815   1.0572   1.2107   1.2265   1.2520   1.3986
     1.4820   1.5801   1.8634   1.9078   2.1364   2.5889   2.6821   2.8654
     2.9494   3.5073   3.6560   3.7119   3.7878   3.8913   4.0264   4.1146
     4.1775   4.3968   4.6244   4.8123   4.9686   5.0216   5.1859   5.2501
     5.4199   5.5670   5.6483   5.6877   5.7959   6.0366   6.0829   6.1336
     6.1776   6.2208   6.2699   6.4365   6.4769   6.6187   6.6413   6.8190
     6.8918   6.9651   7.0133   7.0961   7.2312   7.3909   7.5070   7.6795
     7.8510   7.8968   7.9681   8.0812   8.1781   8.2143   8.2576   8.2852
     8.3754   8.4356   8.5478   8.5924   8.7349   8.7496   8.8930   8.9590
     9.0774   9.1395   9.2319   9.3216   9.4520   9.4967   9.5170   9.6591
     9.7335   9.7500   9.9389  10.0286  10.0734  10.0952  10.5048  10.8811
    10.9804  11.1569  11.5058  11.7630  12.2401  13.7147  14.8340  15.1196
    18.0580  18.2039  18.2616  18.3127  18.3684  18.8002  18.9237  19.0982
    19.1527  19.2803  19.3555  19.4874  19.6986  19.8433  19.8916  20.0307
    20.2474  20.3653  20.4292  20.5204  20.5605  20.5960  20.6378  20.6793

     occupation numbers 
     1.0000   1.0000   1.0000   1.0000   1.0000   1.0000   1.0000   1.0000
     1.0000   1.0000   1.0000   1.0000   1.0000   1.0000   1.0000   1.0000
     1.0000   1.0000   1.0000   1.0000   1.0000   1.0000   1.0000   1.0000
     1.0000   1.0000   1.0000   1.0000   1.0000   1.0000   1.0000   1.0000
     1.0000   1.0000   1.0000   1.0000   1.0000   1.0000   1.0000   1.0000
     1.0000   1.0000   1.0000   1.0000   1.0000   1.0000   1.0000   1.0000
     1.0000   1.0000   1.0000   1.0000   1.0000   1.0000   1.0000   1.0000
     1.0000   1.0000   1.0000   1.0000   1.0000   1.0000   1.0000   1.0000
     1.0000   1.0000   1.0000   1.0000   1.0000   1.0000   1.0000   1.0000
     1.0000   1.0000   1.0000   1.0000   1.0000   1.0000   1.0000   1.0000
     1.0000   1.0000   1.0000   1.0000   1.0000   1.0000   1.0000   1.0000
     1.0000   1.0000   1.0000   1.0000   1.0000   1.0000   1.0000   1.0000
     1.0000   1.0000   1.0000   1.0000   1.0000   1.0000   1.0000   1.0000
     1.0000   1.0000   1.0000   1.0000   1.0000   1.0000   1.0000   1.0000
     1.0000   1.0000   1.0000   1.0000   1.0000   1.0000   1.0000   1.0000
     1.0000   1.0000   1.0000   1.0000   1.0000   1.0000   1.0000   0.5000
     0.0000   0.0000   0.0000   0.0000   0.0000   0.0000   0.0000   0.0000
     0.0000   0.0000   0.0000   0.0000   0.0000   0.0000   0.0000   0.0000
     0.0000   0.0000   0.0000   0.0000   0.0000   0.0000   0.0000   0.0000

          k = 0.3333-0.3333 0.3333 ( 24303 PWs)   bands (ev):

    -7.8931  -7.3516  -6.9785  -6.8243  -6.4652  -6.2193  -5.9830  -5.4896
    -4.4810  -4.0313  -3.9342  -3.7088  -3.4109  -3.3588  -3.3132  -3.2201
    -3.0751  -2.8852  -2.6881  -2.4253  -2.0624  -1.8856  -1.8515  -1.7162
    -1.4861  -1.4606  -1.4259  -1.3568  -1.3565  -1.2602  -1.1771  -0.0519
     0.7572   0.8755   0.9620   0.9984   1.0641   1.4216   1.7455   1.7812
     1.8585   1.9452   2.0431   2.2412   2.5803   2.6156   2.6870   2.7046
     2.7216   2.7800   2.9215   3.1778   3.5109   3.9970   4.2382   4.3105
     4.8269   4.8304   4.8564   5.0117   5.0274   5.0684   5.1963   5.2556
     5.2816   5.4375   5.4429   5.5035   5.6855   5.7753   5.8280   6.4648
     6.7054   6.7614   6.9235   6.9299   6.9702   7.0514   7.0720   7.0951
     7.1649   7.1847   7.2324   7.2641   7.2686   7.3205   7.3345   7.3547
     7.3772   7.4634   7.7383   7.7410   7.8281   7.9271   7.9517   7.9617
     8.1325   8.1569   8.2688   8.2872   8.3699   8.3927   8.4114   8.4875
     8.7018   8.7300   8.9665   8.9873   9.1195   9.5334   9.5903   9.6983
     9.8812  10.4060  10.5144  10.5206  10.5562  10.9326  10.9450  11.2058
    11.2274  11.2926  11.4566  11.7263  11.7353  13.7396  14.9027  15.2083
    18.1201  18.2599  18.3413  18.5423  18.6569  18.7259  19.2095  19.3950
    19.4356  19.5111  19.5347  19.5525  19.6088  19.6290  19.6621  19.7267
    19.7435  19.7943  19.9161  19.9246  19.9898  19.9965  20.0434  20.1540

     occupation numbers 
     1.0000   1.0000   1.0000   1.0000   1.0000   1.0000   1.0000   1.0000
     1.0000   1.0000   1.0000   1.0000   1.0000   1.0000   1.0000   1.0000
     1.0000   1.0000   1.0000   1.0000   1.0000   1.0000   1.0000   1.0000
     1.0000   1.0000   1.0000   1.0000   1.0000   1.0000   1.0000   1.0000
     1.0000   1.0000   1.0000   1.0000   1.0000   1.0000   1.0000   1.0000
     1.0000   1.0000   1.0000   1.0000   1.0000   1.0000   1.0000   1.0000
     1.0000   1.0000   1.0000   1.0000   1.0000   1.0000   1.0000   1.0000
     1.0000   1.0000   1.0000   1.0000   1.0000   1.0000   1.0000   1.0000
     1.0000   1.0000   1.0000   1.0000   1.0000   1.0000   1.0000   1.0000
     1.0000   1.0000   1.0000   1.0000   1.0000   1.0000   1.0000   1.0000
     1.0000   1.0000   1.0000   1.0000   1.0000   1.0000   1.0000   1.0000
     1.0000   1.0000   1.0000   1.0000   1.0000   1.0000   1.0000   1.0000
     1.0000   1.0000   1.0000   1.0000   1.0000   1.0000   1.0000   1.0000
     1.0000   1.0000   1.0000   1.0000   1.0000   1.0000   1.0000   1.0000
     1.0000   1.0000   1.0000   1.0000   1.0000   1.0000   1.0000   1.0000
     1.0000   1.0000   1.0000   1.0000   1.0000   1.0000   1.0000   0.0000
     0.0000   0.0000   0.0000   0.0000   0.0000   0.0000   0.0000   0.0000
     0.0000   0.0000   0.0000   0.0000   0.0000   0.0000   0.0000   0.0000
     0.0000   0.0000   0.0000   0.0000   0.0000   0.0000   0.0000   0.0000

 ------ SPIN DOWN ----------


          k = 0.0000 0.0000 0.0000 ( 24207 PWs)   bands (ev):

    -8.5599  -6.9608  -6.2775  -6.2775  -6.1654  -6.1654  -5.8849  -4.9334
    -4.1373  -4.1373  -4.1071  -4.1071  -4.0271  -4.0271  -4.0025  -3.9408
    -3.8760  -3.8760  -3.3618  -2.9685  -2.6775  -2.6775  -2.0904  -0.3802
    -0.3802  -0.3538  -0.3213  -0.1042   0.1654   0.1654   0.2765   0.2765
     0.3507   0.5884   0.8053   0.8053   0.9622   0.9622   0.9911   1.0122
     1.0122   1.0337   1.3265   1.3265   3.0516   3.8993   3.8993   4.0243
     4.2014   4.2046   4.2046   4.2195   4.2473   4.2473   4.4065   4.4065
     4.4600   4.4600   4.5671   4.6330   4.6330   4.6355   4.6443   4.7350
     4.7350   4.8675   4.9274   4.9274   5.0391   5.1974   5.1974   5.2603
     5.3196   5.3196   5.3578   5.3904   5.3904   6.0032   6.0032   6.0296
     6.5931   6.5931   6.7009   6.9702   7.0072   7.0072   7.5120   8.2990
     8.2990   8.3646   8.4358   8.4358   8.6160   8.6160   8.7650   8.7829
     8.7829   8.7851   8.8387   8.8387   8.8668   9.2281   9.2347   9.2347
     9.6568   9.6568   9.8595   9.8734   9.8734   9.8776   9.9020   9.9361
     9.9361   9.9418   9.9664   9.9664  10.0657  10.0657  10.2267  10.2267
    10.2796  11.0592  12.2632  12.4370  12.4370  13.9186  15.2949  15.2949
    17.3075  17.3338  17.3338  17.4928  17.5202  17.5202  17.8139  17.8791
    17.8791  17.9677  17.9677  18.3432  18.8955  18.8955  18.9271  20.6290
    20.7597  20.7597  20.8030  20.8861  20.8861  20.9649  20.9650  20.9949

     occupation numbers 
     1.0000   1.0000   1.0000   1.0000   1.0000   1.0000   1.0000   1.0000
     1.0000   1.0000   1.0000   1.0000   1.0000   1.0000   1.0000   1.0000
     1.0000   1.0000   1.0000   1.0000   1.0000   1.0000   1.0000   1.0000
     1.0000   1.0000   1.0000   1.0000   1.0000   1.0000   1.0000   1.0000
     1.0000   1.0000   1.0000   1.0000   1.0000   1.0000   1.0000   1.0000
     1.0000   1.0000   1.0000   1.0000   1.0000   1.0000   1.0000   1.0000
     1.0000   1.0000   1.0000   1.0000   1.0000   1.0000   1.0000   1.0000
     1.0000   1.0000   1.0000   1.0000   1.0000   1.0000   1.0000   1.0000
     1.0000   1.0000   1.0000   1.0000   1.0000   1.0000   1.0000   1.0000
     1.0000   1.0000   1.0000   1.0000   1.0000   1.0000   1.0000   1.0000
     1.0000   1.0000   1.0000   1.0000   1.0000   1.0000   1.0000   1.0000
     1.0000   1.0000   1.0000   1.0000   1.0000   1.0000   1.0000   1.0000
     1.0000   1.0000   1.0000   1.0000   1.0000   1.0000   1.0000   1.0000
     1.0000   1.0000   1.0000   1.0000   1.0000   1.0000   1.0000   1.0000
     1.0000   1.0000   1.0000   1.0000   1.0000   1.0000   1.0000   1.0000
     1.0000   1.0000   1.0000   1.0000   1.0000   1.0000   0.0000   0.0000
     0.0000   0.0000   0.0000   0.0000   0.0000   0.0000   0.0000   0.0000
     0.0000   0.0000   0.0000   0.0000   0.0000   0.0000   0.0000   0.0000
     0.0000   0.0000   0.0000   0.0000   0.0000   0.0000   0.0000   0.0000

          k = 0.0000 0.0000 0.3333 ( 24280 PWs)   bands (ev):

    -8.3299  -7.5606  -6.5646  -6.0322  -5.9248  -5.8186  -5.4923  -5.2915
    -5.1702  -4.9779  -4.5116  -4.1252  -3.8065  -3.7913  -3.6832  -3.4401
    -3.2019  -3.1497  -2.9273  -2.6016  -2.5031  -2.3837  -2.3206  -1.7717
    -0.8378  -0.6909  -0.5806  -0.3411   0.1759   0.2628   0.3647   0.4026
     0.4758   0.5598   0.5738   0.6619   0.7253   0.7440   0.9852   1.4773
     1.9878   2.0135   2.1558   2.2290   2.4189   2.4810   2.4871   2.7474
     2.9484   3.0022   3.1677   3.1723   3.8934   3.9703   4.0546   4.0664
     4.2946   4.3695   4.5091   4.5536   5.0793   5.1081   5.1421   5.2048
     5.2106   5.5907   5.6155   5.7158   5.7483   6.0662   6.1089   6.1873
     6.1896   6.3252   6.3970   6.4578   6.5080   6.6157   6.6246   6.7473
     6.7641   6.8863   6.9089   6.9363   7.1470   7.1582   7.1824   7.2653
     7.4126   7.4783   7.6751   7.7738   7.8259   8.0564   8.1427   8.2783
     8.3035   8.4445   8.6746   8.7133   8.7687   9.0991   9.1957   9.3473
     9.3803   9.6280   9.6582   9.7126   9.7867   9.9207   9.9342   9.9574
     9.9667  10.0208  10.1086  10.1113  10.1803  10.2670  10.2692  10.3595
    10.3712  11.3710  11.7110  11.7197  12.0343  13.6567  14.9856  15.1596
    17.1901  17.2993  17.9532  18.3221  18.3545  18.4910  18.5061  18.6113
    18.8237  18.8319  18.9732  19.0803  19.2091  19.8309  19.8617  20.4996
    20.6643  20.6890  20.7863  20.7933  20.8261  20.8708  20.9081  20.9420

     occupation numbers 
     1.0000   1.0000   1.0000   1.0000   1.0000   1.0000   1.0000   1.0000
     1.0000   1.0000   1.0000   1.0000   1.0000   1.0000   1.0000   1.0000
     1.0000   1.0000   1.0000   1.0000   1.0000   1.0000   1.0000   1.0000
     1.0000   1.0000   1.0000   1.0000   1.0000   1.0000   1.0000   1.0000
     1.0000   1.0000   1.0000   1.0000   1.0000   1.0000   1.0000   1.0000
     1.0000   1.0000   1.0000   1.0000   1.0000   1.0000   1.0000   1.0000
     1.0000   1.0000   1.0000   1.0000   1.0000   1.0000   1.0000   1.0000
     1.0000   1.0000   1.0000   1.0000   1.0000   1.0000   1.0000   1.0000
     1.0000   1.0000   1.0000   1.0000   1.0000   1.0000   1.0000   1.0000
     1.0000   1.0000   1.0000   1.0000   1.0000   1.0000   1.0000   1.0000
     1.0000   1.0000   1.0000   1.0000   1.0000   1.0000   1.0000   1.0000
     1.0000   1.0000   1.0000   1.0000   1.0000   1.0000   1.0000   1.0000
     1.0000   1.0000   1.0000   1.0000   1.0000   1.0000   1.0000   1.0000
     1.0000   1.0000   1.0000   1.0000   1.0000   1.0000   1.0000   1.0000
     1.0000   1.0000   1.0000   1.0000   1.0000   1.0000   1.0000   1.0000
     1.0000   1.0000   1.0000   1.0000   1.0000   1.0000   1.0000   0.0000
     0.0000   0.0000   0.0000   0.0000   0.0000   0.0000   0.0000   0.0000
     0.0000   0.0000   0.0000   0.0000   0.0000   0.0000   0.0000   0.0000
     0.0000   0.0000   0.0000   0.0000   0.0000   0.0000   0.0000   0.0000

          k = 0.0000 0.3333 0.3333 ( 24236 PWs)   bands (ev):

    -8.1149  -7.3823  -7.2266  -6.5697  -5.9557  -5.6669  -5.3278  -5.0087
    -4.9920  -4.8424  -4.4918  -4.2558  -4.2198  -3.9360  -3.5358  -3.5075
    -2.7704  -2.3721  -2.3283  -2.3185  -2.1977  -2.1871  -2.0443  -1.8831
    -1.4897  -1.3151  -1.0931  -0.9186  -0.5375  -0.0235   0.0617   0.1290
     0.1815   0.4811   0.6907   1.1880   1.2051   1.3130   1.3837   1.3999
     1.4545   1.4607   1.9464   2.0648   2.1361   2.4056   2.7280   2.8253
     2.9716   3.5148   3.6542   3.7016   3.7802   3.8175   3.9738   4.0427
     4.1223   4.5512   4.6771   4.8256   5.0353   5.0474   5.1445   5.3003
     5.3472   5.5917   5.6542   5.6910   5.7495   5.9774   6.0288   6.0790
     6.1424   6.2351   6.2763   6.4914   6.5444   6.6024   6.6557   6.8583
     6.9173   6.9482   7.0435   7.0457   7.2320   7.2914   7.4986   7.7064
     7.9357   7.9473   8.0735   8.0963   8.1193   8.2240   8.2645   8.3377
     8.3440   8.4046   8.5347   8.6387   8.6991   8.7055   8.8428   8.8957
     9.0773   9.2026   9.2414   9.3119   9.4683   9.4794   9.5764   9.6387
     9.7061   9.7917   9.9082  10.0455  10.0514  10.1280  10.4405  10.7582
    11.0165  11.2115  11.5485  11.8601  12.2289  13.4611  14.9202  15.2248
    18.0826  18.1945  18.2271  18.3047  18.3597  18.8339  18.8548  18.9967
    19.1810  19.2293  19.4419  19.4779  19.6992  19.8163  19.9727  20.0215
    20.1980  20.4521  20.4820  20.5053  20.5657  20.5999  20.6143  20.6528

     occupation numbers 
     1.0000   1.0000   1.0000   1.0000   1.0000   1.0000   1.0000   1.0000
     1.0000   1.0000   1.0000   1.0000   1.0000   1.0000   1.0000   1.0000
     1.0000   1.0000   1.0000   1.0000   1.0000   1.0000   1.0000   1.0000
     1.0000   1.0000   1.0000   1.0000   1.0000   1.0000   1.0000   1.0000
     1.0000   1.0000   1.0000   1.0000   1.0000   1.0000   1.0000   1.0000
     1.0000   1.0000   1.0000   1.0000   1.0000   1.0000   1.0000   1.0000
     1.0000   1.0000   1.0000   1.0000   1.0000   1.0000   1.0000   1.0000
     1.0000   1.0000   1.0000   1.0000   1.0000   1.0000   1.0000   1.0000
     1.0000   1.0000   1.0000   1.0000   1.0000   1.0000   1.0000   1.0000
     1.0000   1.0000   1.0000   1.0000   1.0000   1.0000   1.0000   1.0000
     1.0000   1.0000   1.0000   1.0000   1.0000   1.0000   1.0000   1.0000
     1.0000   1.0000   1.0000   1.0000   1.0000   1.0000   1.0000   1.0000
     1.0000   1.0000   1.0000   1.0000   1.0000   1.0000   1.0000   1.0000
     1.0000   1.0000   1.0000   1.0000   1.0000   1.0000   1.0000   1.0000
     1.0000   1.0000   1.0000   1.0000   1.0000   1.0000   1.0000   1.0000
     1.0000   1.0000   1.0000   1.0000   1.0000   1.0000   1.0000   0.0000
     0.0000   0.0000   0.0000   0.0000   0.0000   0.0000   0.0000   0.0000
     0.0000   0.0000   0.0000   0.0000   0.0000   0.0000   0.0000   0.0000
     0.0000   0.0000   0.0000   0.0000   0.0000   0.0000   0.0000   0.0000

          k = 0.3333 0.3333 0.3333 ( 24303 PWs)   bands (ev):

    -7.9195  -7.2098  -6.9783  -6.9783  -6.2914  -6.2204  -6.2204  -5.4526
    -4.1968  -4.0300  -4.0300  -3.5254  -3.3846  -3.3846  -3.3210  -3.3210
    -3.2991  -2.9026  -2.6691  -2.6691  -1.9458  -1.9054  -1.9054  -1.5366
    -1.4499  -1.4499  -1.4022  -1.4022  -1.3335  -1.2220  -1.2220   0.0708
     0.8450   0.8450   0.9812   0.9936   0.9936   1.3053   1.8384   1.8384
     1.8711   1.9099   2.0077   2.0077   2.5975   2.5975   2.6004   2.7032
     2.7320   2.7320   3.1463   3.1463   3.5385   4.0786   4.2929   4.2929
     4.8105   4.9288   4.9288   4.9597   5.0898   5.0898   5.1516   5.3091
     5.3091   5.3982   5.5095   5.5095   5.5809   5.5809   5.6310   6.3860
     6.7263   6.7263   6.9599   6.9980   6.9980   7.0054   7.0916   7.0916
     7.1969   7.1969   7.2499   7.2542   7.2652   7.2652   7.3654   7.3654
     7.3751   7.4966   7.7300   7.7300   7.9228   7.9228   7.9553   8.0004
     8.1860   8.1860   8.2893   8.3026   8.3026   8.4373   8.4529   8.4529
     8.6832   8.6832   8.8598   9.0707   9.1084   9.5389   9.5389   9.7895
     9.7895  10.4892  10.4892  10.5103  10.5844  10.9522  10.9522  11.2623
    11.2623  11.2998  11.4908  11.6677  11.6677  13.3722  15.2182  15.2182
    18.1565  18.2438  18.2438  18.4690  18.6428  18.6428  19.2459  19.3993
    19.3993  19.5452  19.5452  19.5748  19.6281  19.6281  19.6774  19.7427
    19.7428  19.8636  19.9216  19.9216  20.0063  20.0064  20.0255  20.1646

     occupation numbers 
     1.0000   1.0000   1.0000   1.0000   1.0000   1.0000   1.0000   1.0000
     1.0000   1.0000   1.0000   1.0000   1.0000   1.0000   1.0000   1.0000
     1.0000   1.0000   1.0000   1.0000   1.0000   1.0000   1.0000   1.0000
     1.0000   1.0000   1.0000   1.0000   1.0000   1.0000   1.0000   1.0000
     1.0000   1.0000   1.0000   1.0000   1.0000   1.0000   1.0000   1.0000
     1.0000   1.0000   1.0000   1.0000   1.0000   1.0000   1.0000   1.0000
     1.0000   1.0000   1.0000   1.0000   1.0000   1.0000   1.0000   1.0000
     1.0000   1.0000   1.0000   1.0000   1.0000   1.0000   1.0000   1.0000
     1.0000   1.0000   1.0000   1.0000   1.0000   1.0000   1.0000   1.0000
     1.0000   1.0000   1.0000   1.0000   1.0000   1.0000   1.0000   1.0000
     1.0000   1.0000   1.0000   1.0000   1.0000   1.0000   1.0000   1.0000
     1.0000   1.0000   1.0000   1.0000   1.0000   1.0000   1.0000   1.0000
     1.0000   1.0000   1.0000   1.0000   1.0000   1.0000   1.0000   1.0000
     1.0000   1.0000   1.0000   1.0000   1.0000   1.0000   1.0000   1.0000
     1.0000   1.0000   1.0000   1.0000   1.0000   1.0000   1.0000   1.0000
     1.0000   1.0000   1.0000   1.0000   1.0000   1.0000   0.0000   0.0000
     0.0000   0.0000   0.0000   0.0000   0.0000   0.0000   0.0000   0.0000
     0.0000   0.0000   0.0000   0.0000   0.0000   0.0000   0.0000   0.0000
     0.0000   0.0000   0.0000   0.0000   0.0000   0.0000   0.0000   0.0000

          k =-0.3333 0.0000 0.3333 ( 24236 PWs)   bands (ev):

    -8.1010  -7.4998  -7.1014  -6.5564  -5.9939  -5.6725  -5.3663  -5.0294
    -4.9293  -4.7649  -4.5140  -4.2933  -4.2258  -4.0431  -3.5871  -3.3308
    -2.7653  -2.4029  -2.3612  -2.2914  -2.1928  -2.1660  -2.0984  -1.6561
    -1.6383  -1.3109  -1.1143  -0.9847  -0.5913   0.0105   0.0776   0.1182
     0.2693   0.4925   0.8815   1.0571   1.2106   1.2264   1.2519   1.3985
     1.4819   1.5800   1.8634   1.9077   2.1363   2.5888   2.6820   2.8653
     2.9494   3.5073   3.6559   3.7118   3.7877   3.8913   4.0263   4.1146
     4.1775   4.3968   4.6244   4.8123   4.9685   5.0216   5.1859   5.2501
     5.4199   5.5669   5.6482   5.6877   5.7958   6.0366   6.0829   6.1336
     6.1776   6.2207   6.2699   6.4365   6.4769   6.6186   6.6413   6.8190
     6.8918   6.9651   7.0133   7.0961   7.2312   7.3909   7.5071   7.6796
     7.8510   7.8968   7.9681   8.0812   8.1780   8.2143   8.2576   8.2852
     8.3754   8.4356   8.5479   8.5924   8.7349   8.7496   8.8930   8.9590
     9.0774   9.1396   9.2319   9.3216   9.4520   9.4968   9.5170   9.6591
     9.7335   9.7500   9.9389  10.0287  10.0734  10.0953  10.5048  10.8811
    10.9805  11.1570  11.5058  11.7634  12.2401  13.7154  14.8340  15.1196
    18.0581  18.2038  18.2616  18.3127  18.3683  18.8003  18.9238  19.0982
    19.1528  19.2803  19.3555  19.4874  19.6986  19.8433  19.8916  20.0307
    20.2476  20.3654  20.4293  20.5205  20.5605  20.5961  20.6378  20.6794

     occupation numbers 
     1.0000   1.0000   1.0000   1.0000   1.0000   1.0000   1.0000   1.0000
     1.0000   1.0000   1.0000   1.0000   1.0000   1.0000   1.0000   1.0000
     1.0000   1.0000   1.0000   1.0000   1.0000   1.0000   1.0000   1.0000
     1.0000   1.0000   1.0000   1.0000   1.0000   1.0000   1.0000   1.0000
     1.0000   1.0000   1.0000   1.0000   1.0000   1.0000   1.0000   1.0000
     1.0000   1.0000   1.0000   1.0000   1.0000   1.0000   1.0000   1.0000
     1.0000   1.0000   1.0000   1.0000   1.0000   1.0000   1.0000   1.0000
     1.0000   1.0000   1.0000   1.0000   1.0000   1.0000   1.0000   1.0000
     1.0000   1.0000   1.0000   1.0000   1.0000   1.0000   1.0000   1.0000
     1.0000   1.0000   1.0000   1.0000   1.0000   1.0000   1.0000   1.0000
     1.0000   1.0000   1.0000   1.0000   1.0000   1.0000   1.0000   1.0000
     1.0000   1.0000   1.0000   1.0000   1.0000   1.0000   1.0000   1.0000
     1.0000   1.0000   1.0000   1.0000   1.0000   1.0000   1.0000   1.0000
     1.0000   1.0000   1.0000   1.0000   1.0000   1.0000   1.0000   1.0000
     1.0000   1.0000   1.0000   1.0000   1.0000   1.0000   1.0000   1.0000
     1.0000   1.0000   1.0000   1.0000   1.0000   1.0000   1.0000   0.5000
     0.0000   0.0000   0.0000   0.0000   0.0000   0.0000   0.0000   0.0000
     0.0000   0.0000   0.0000   0.0000   0.0000   0.0000   0.0000   0.0000
     0.0000   0.0000   0.0000   0.0000   0.0000   0.0000   0.0000   0.0000

          k = 0.3333-0.3333 0.3333 ( 24303 PWs)   bands (ev):

    -7.8930  -7.3515  -6.9786  -6.8244  -6.4652  -6.2194  -5.9831  -5.4896
    -4.4808  -4.0315  -3.9343  -3.7088  -3.4110  -3.3589  -3.3133  -3.2202
    -3.0752  -2.8852  -2.6882  -2.4253  -2.0625  -1.8857  -1.8516  -1.7163
    -1.4862  -1.4607  -1.4260  -1.3569  -1.3566  -1.2603  -1.1771  -0.0519
     0.7571   0.8754   0.9619   0.9982   1.0639   1.4216   1.7455   1.7812
     1.8584   1.9451   2.0430   2.2411   2.5802   2.6156   2.6870   2.7045
     2.7215   2.7799   2.9215   3.1777   3.5108   3.9970   4.2381   4.3105
     4.8269   4.8304   4.8564   5.0116   5.0273   5.0683   5.1962   5.2556
     5.2815   5.4374   5.4429   5.5035   5.6854   5.7752   5.8279   6.4648
     6.7055   6.7614   6.9235   6.9299   6.9701   7.0514   7.0720   7.0951
     7.1649   7.1847   7.2323   7.2641   7.2685   7.3205   7.3344   7.3546
     7.3771   7.4634   7.7383   7.7411   7.8282   7.9270   7.9517   7.9617
     8.1325   8.1569   8.2688   8.2873   8.3699   8.3927   8.4113   8.4876
     8.7018   8.7300   8.9665   8.9873   9.1196   9.5334   9.5903   9.6985
     9.8812  10.4061  10.5144  10.5206  10.5563  10.9326  10.9451  11.2059
    11.2274  11.2926  11.4568  11.7263  11.7354  13.7404  14.9026  15.2082
    18.1201  18.2598  18.3412  18.5424  18.6569  18.7259  19.2096  19.3951
    19.4356  19.5111  19.5347  19.5525  19.6088  19.6290  19.6622  19.7267
    19.7435  19.7943  19.9161  19.9247  19.9898  19.9965  20.0436  20.1540

     occupation numbers 
     1.0000   1.0000   1.0000   1.0000   1.0000   1.0000   1.0000   1.0000
     1.0000   1.0000   1.0000   1.0000   1.0000   1.0000   1.0000   1.0000
     1.0000   1.0000   1.0000   1.0000   1.0000   1.0000   1.0000   1.0000
     1.0000   1.0000   1.0000   1.0000   1.0000   1.0000   1.0000   1.0000
     1.0000   1.0000   1.0000   1.0000   1.0000   1.0000   1.0000   1.0000
     1.0000   1.0000   1.0000   1.0000   1.0000   1.0000   1.0000   1.0000
     1.0000   1.0000   1.0000   1.0000   1.0000   1.0000   1.0000   1.0000
     1.0000   1.0000   1.0000   1.0000   1.0000   1.0000   1.0000   1.0000
     1.0000   1.0000   1.0000   1.0000   1.0000   1.0000   1.0000   1.0000
     1.0000   1.0000   1.0000   1.0000   1.0000   1.0000   1.0000   1.0000
     1.0000   1.0000   1.0000   1.0000   1.0000   1.0000   1.0000   1.0000
     1.0000   1.0000   1.0000   1.0000   1.0000   1.0000   1.0000   1.0000
     1.0000   1.0000   1.0000   1.0000   1.0000   1.0000   1.0000   1.0000
     1.0000   1.0000   1.0000   1.0000   1.0000   1.0000   1.0000   1.0000
     1.0000   1.0000   1.0000   1.0000   1.0000   1.0000   1.0000   1.0000
     1.0000   1.0000   1.0000   1.0000   1.0000   1.0000   1.0000   0.0000
     0.0000   0.0000   0.0000   0.0000   0.0000   0.0000   0.0000   0.0000
     0.0000   0.0000   0.0000   0.0000   0.0000   0.0000   0.0000   0.0000
     0.0000   0.0000   0.0000   0.0000   0.0000   0.0000   0.0000   0.0000

     the spin up/dw Fermi energies are    15.1215   15.1214 ev

!    total energy              =    -724.77942776 Ry
     Harris-Foulkes estimate   =    -724.77942736 Ry
     estimated scf accuracy    <       0.00000047 Ry

     The total energy is the sum of the following terms:

     one-electron contribution =     232.81901593 Ry
     hartree contribution      =      69.15893129 Ry
     xc contribution           =    -226.34419084 Ry
     ewald contribution        =    -800.41311120 Ry
     smearing contrib. (-TS)   =      -0.00007293 Ry

     total magnetization       =     0.00 Bohr mag/cell
     absolute magnetization    =     0.00 Bohr mag/cell

     convergence has been achieved in   9 iterations

     Writing output data file di.save
 
     init_run     :      1.33s CPU      1.70s WALL (       1 calls)
     electrons    :     25.67s CPU     26.06s WALL (       1 calls)

     Called by init_run:
     wfcinit      :      0.74s CPU      0.80s WALL (       1 calls)
     wfcinit:atom :      0.00s CPU      0.01s WALL (       2 calls)
     wfcinit:wfcr :      0.69s CPU      0.75s WALL (       2 calls)
     potinit      :      0.08s CPU      0.09s WALL (       1 calls)

     Called by electrons:
     c_bands      :     24.08s CPU     24.43s WALL (       9 calls)
     sum_band     :      1.08s CPU      1.10s WALL (       9 calls)
     v_of_rho     :      0.37s CPU      0.38s WALL (      10 calls)
     v_h          :      0.01s CPU      0.01s WALL (      10 calls)
     v_xc         :      0.36s CPU      0.37s WALL (      10 calls)
     mix_rho      :      0.06s CPU      0.06s WALL (       9 calls)

     Called by c_bands:
     init_us_2    :      0.17s CPU      0.17s WALL (      38 calls)
     cegterg      :     20.76s CPU     21.09s WALL (      18 calls)

     Called by sum_band:

     Called by *egterg:
     h_psi        :      8.33s CPU      8.43s WALL (     125 calls)
     g_psi        :      0.05s CPU      0.05s WALL (     105 calls)
     cdiaghg      :      8.82s CPU      8.87s WALL (     123 calls)
     cegterg:over :      1.62s CPU      1.63s WALL (     105 calls)
     cegterg:upda :      1.23s CPU      1.23s WALL (     105 calls)
     cegterg:last :      0.46s CPU      0.46s WALL (      18 calls)

     Called by h_psi:
     h_psi:pot    :      8.23s CPU      8.33s WALL (     125 calls)
     h_psi:calbec :      1.79s CPU      1.81s WALL (     125 calls)
     vloc_psi     :      4.58s CPU      4.65s WALL (     125 calls)
     add_vuspsi   :      1.86s CPU      1.88s WALL (     125 calls)

     General routines
     calbec       :      1.79s CPU      1.81s WALL (     125 calls)
     fft          :      0.11s CPU      0.32s WALL (     207 calls)
     fftw         :      4.89s CPU      4.88s WALL (   18360 calls)
 
     Parallel routines
     fft_scatter  :      1.46s CPU      1.43s WALL (   18567 calls)
 
     PWSCF        :    29.88s CPU        33.27s WALL

 
   This run was terminated on:  10:25:58  12May2020            

=------------------------------------------------------------------------------=
   JOB DONE.
=------------------------------------------------------------------------------=
