
     Program PWSCF v.6.1 (svn rev. 13369) starts on 12May2020 at 10:23:54 

     This program is part of the open-source Quantum ESPRESSO suite
     for quantum simulation of materials; please cite
         "P. Giannozzi et al., J. Phys.:Condens. Matter 21 395502 (2009);
          URL http://www.quantum-espresso.org", 
     in publications or presentations arising from this work. More details at
     http://www.quantum-espresso.org/quote

     Parallel version (MPI), running on    96 processors
     K-points division:     npool     =       6
     R & G space division:  proc/nbgrp/npool/nimage =      16
     Reading input from scf.in
Warning: card &IONS ignored
Warning: card / ignored

     Current dimensions of program PWSCF are:
     Max number of different atomic species (ntypx) = 10
     Max number of k-points (npk) =  40000
     Max angular momentum in pseudopotentials (lmaxx) =  3

     Subspace diagonalization in iterative solution of the eigenvalue problem:
     a serial algorithm will be used

 
     Parallelization info
     --------------------
     sticks:   dense  smooth     PW     G-vecs:    dense   smooth      PW
     Min         252     252     67                12125    12125    1669
     Max         254     254     68                12129    12129    1672
     Sum        4049    4049   1085               194039   194039   26745
 


     bravais-lattice index     =            1
     lattice parameter (alat)  =      13.4862  a.u.
     unit-cell volume          =    2452.8358 (a.u.)^3
     number of atoms/cell      =           63
     number of atomic types    =            2
     number of electrons       =       254.00 (up: 127.00, down: 127.00)
     number of Kohn-Sham states=          152
     kinetic-energy cutoff     =      70.0000  Ry
     charge density cutoff     =     280.0000  Ry
     convergence threshold     =      1.0E-06
     mixing beta               =       0.5000
     number of iterations used =            8  plain     mixing
     Exchange-correlation      = PBE ( 1  4  3  4 0 0)

     celldm(1)=  13.486197  celldm(2)=   0.000000  celldm(3)=   0.000000
     celldm(4)=   0.000000  celldm(5)=   0.000000  celldm(6)=   0.000000

     crystal axes: (cart. coord. in units of alat)
               a(1) = (   1.000000   0.000000   0.000000 )  
               a(2) = (   0.000000   1.000000   0.000000 )  
               a(3) = (   0.000000   0.000000   1.000000 )  

     reciprocal axes: (cart. coord. in units 2 pi/alat)
               b(1) = (  1.000000  0.000000  0.000000 )  
               b(2) = (  0.000000  1.000000  0.000000 )  
               b(3) = (  0.000000  0.000000  1.000000 )  


     PseudoPot. # 1 for C  read from file:
     /home/tjsmart/Pseudo/C_ONCV_PBE-1.0.upf
     MD5 check sum: 72b63e32b2fd29504de26a4901699f60
     Pseudo is Norm-conserving, Zval =  4.0
     Generated using ONCVPSP code by D. R. Hamann
     Using radial grid of 1248 points,  4 beta functions with: 
                l(1) =   0
                l(2) =   0
                l(3) =   1
                l(4) =   1

     PseudoPot. # 2 for N  read from file:
     /home/tjsmart/Pseudo/N_ONCV_PBE-1.0.upf
     MD5 check sum: 09890da6b2972017450f7114a6086fad
     Pseudo is Norm-conserving, Zval =  5.0
     Generated using ONCVPSP code by D. R. Hamann
     Using radial grid of 1058 points,  4 beta functions with: 
                l(1) =   0
                l(2) =   0
                l(3) =   1
                l(4) =   1

     atomic species   valence    mass     pseudopotential
        C              4.00    12.01110     C ( 1.00)
        N              5.00    14.00670     N ( 1.00)

     Starting magnetic structure 
     atomic species   magnetization
        C            0.200
        N            0.200

      6 Sym. Ops. (no inversion) found


                                    s                        frac. trans.

      isym =  1     identity                                     

 cryst.   s( 1) = (     1          0          0      )
                  (     0          1          0      )
                  (     0          0          1      )

 cart.    s( 1) = (  1.0000000  0.0000000  0.0000000 )
                  (  0.0000000  1.0000000  0.0000000 )
                  (  0.0000000  0.0000000  1.0000000 )


      isym =  2     120 deg rotation - cart. axis [-1,-1,-1]     

 cryst.   s( 2) = (     0          0          1      )
                  (     1          0          0      )
                  (     0          1          0      )

 cart.    s( 2) = (  0.0000000  1.0000000  0.0000000 )
                  (  0.0000000  0.0000000  1.0000000 )
                  (  1.0000000  0.0000000  0.0000000 )


      isym =  3     120 deg rotation - cart. axis [1,1,1]        

 cryst.   s( 3) = (     0          1          0      )
                  (     0          0          1      )
                  (     1          0          0      )

 cart.    s( 3) = (  0.0000000  0.0000000  1.0000000 )
                  (  1.0000000  0.0000000  0.0000000 )
                  (  0.0000000  1.0000000  0.0000000 )


      isym =  4     inv. 180 deg rotation - cart. axis [1,-1,0]  

 cryst.   s( 4) = (     0          1          0      )
                  (     1          0          0      )
                  (     0          0          1      )

 cart.    s( 4) = (  0.0000000  1.0000000  0.0000000 )
                  (  1.0000000  0.0000000  0.0000000 )
                  (  0.0000000  0.0000000  1.0000000 )


      isym =  5     inv. 180 deg rotation - cart. axis [-1,0,1]  

 cryst.   s( 5) = (     0          0          1      )
                  (     0          1          0      )
                  (     1          0          0      )

 cart.    s( 5) = (  0.0000000  0.0000000  1.0000000 )
                  (  0.0000000  1.0000000  0.0000000 )
                  (  1.0000000  0.0000000  0.0000000 )


      isym =  6     inv. 180 deg rotation - cart. axis [0,1,-1]  

 cryst.   s( 6) = (     1          0          0      )
                  (     0          0          1      )
                  (     0          1          0      )

 cart.    s( 6) = (  1.0000000  0.0000000  0.0000000 )
                  (  0.0000000  0.0000000  1.0000000 )
                  (  0.0000000  1.0000000  0.0000000 )


     point group C_3v (3m)  
     there are  3 classes
     the character table:

       E     2C3   3s_v 
A_1    1.00  1.00  1.00
A_2    1.00  1.00 -1.00
E      2.00 -1.00  0.00

     the symmetry operations in each class and the name of the first element:

     E        1
          identity                                               
     2C3      2    3
          120 deg rotation - cart. axis [-1,-1,-1]               
     3s_v     4    5    6
          inv. 180 deg rotation - cart. axis [1,-1,0]            

   Cartesian axes

     site n.     atom                  positions (alat units)
         1           C   tau(   1) = (   0.3757250   0.3757250   0.8737212  )
         2           C   tau(   2) = (   0.4999959   0.0001232   0.0001232  )
         3           C   tau(   3) = (   0.5000747   0.0000277   0.5000747  )
         4           C   tau(   4) = (   0.0001232   0.4999959   0.0001232  )
         5           C   tau(   5) = (   0.0000277   0.5000747   0.5000747  )
         6           C   tau(   6) = (  -0.0001087  -0.0001087  -0.0001087  )
         7           C   tau(   7) = (   0.0001232   0.0001232   0.4999959  )
         8           C   tau(   8) = (   0.2501588   0.2501588  -0.0013172  )
         9           C   tau(   9) = (   0.2504233   0.2504233   0.4943339  )
        10           C   tau(  10) = (   0.2504764   0.7489985   0.0010453  )
        11           C   tau(  11) = (   0.2530449   0.7475317   0.5015067  )
        12           C   tau(  12) = (   0.7489985   0.2504764   0.0010453  )
        13           C   tau(  13) = (   0.7475317   0.2530449   0.5015067  )
        14           C   tau(  14) = (   0.7496892   0.7496892  -0.0000346  )
        15           C   tau(  15) = (   0.5000747   0.5000747   0.0000277  )
        16           C   tau(  16) = (   0.7492917   0.7492917   0.4989062  )
        17           C   tau(  17) = (   0.5015067   0.2530449   0.7475317  )
        18           C   tau(  18) = (   0.5015067   0.7475317   0.2530449  )
        19           C   tau(  19) = (   0.4989062   0.7492917   0.7492917  )
        20           C   tau(  20) = (  -0.0013172   0.2501588   0.2501588  )
        21           C   tau(  21) = (   0.0010453   0.2504764   0.7489985  )
        22           C   tau(  22) = (   0.0010453   0.7489985   0.2504764  )
        23           C   tau(  23) = (  -0.0000346   0.7496892   0.7496892  )
        24           C   tau(  24) = (   0.2504233   0.4943339   0.2504233  )
        25           C   tau(  25) = (   0.2530449   0.5015067   0.7475317  )
        26           C   tau(  26) = (   0.2501588  -0.0013172   0.2501588  )
        27           C   tau(  27) = (   0.2504764   0.0010453   0.7489985  )
        28           C   tau(  28) = (   0.7475317   0.5015067   0.2530449  )
        29           C   tau(  29) = (   0.7492917   0.4989062   0.7492917  )
        30           C   tau(  30) = (   0.4943339   0.2504233   0.2504233  )
        31           C   tau(  31) = (   0.7489985   0.0010453   0.2504764  )
        32           C   tau(  32) = (   0.6247962   0.8746575   0.6247962  )
        33           C   tau(  33) = (   0.6342971   0.3687995   0.6342971  )
        34           C   tau(  34) = (   0.3759517   0.8761966   0.8761966  )
        35           C   tau(  35) = (   0.3757250   0.8737212   0.3757250  )
        36           C   tau(  36) = (   0.8761966   0.3759517   0.8761966  )
        37           C   tau(  37) = (   0.8737212   0.3757250   0.3757250  )
        38           C   tau(  38) = (   0.8747714   0.8747714   0.8747714  )
        39           C   tau(  39) = (   0.8761966   0.8761966   0.3759517  )
        40           C   tau(  40) = (   0.1253873   0.1253873   0.8741955  )
        41           C   tau(  41) = (   0.1236532   0.1236532   0.3748641  )
        42           C   tau(  42) = (   0.1245776   0.6246148   0.8757614  )
        43           C   tau(  43) = (   0.1272409   0.6227764   0.3762885  )
        44           C   tau(  44) = (   0.6246148   0.1245776   0.8757614  )
        45           C   tau(  45) = (   0.6227764   0.1272409   0.3762885  )
        46           C   tau(  46) = (   0.6246148   0.8757614   0.1245776  )
        47           C   tau(  47) = (   0.6247962   0.6247962   0.8746575  )
        48           C   tau(  48) = (   0.3748641   0.1236532   0.1236532  )
        49           C   tau(  49) = (   0.3762885   0.1272409   0.6227764  )
        50           C   tau(  50) = (   0.3762885   0.6227764   0.1272409  )
        51           C   tau(  51) = (   0.3687995   0.6342971   0.6342971  )
        52           C   tau(  52) = (   0.8741955   0.1253873   0.1253873  )
        53           C   tau(  53) = (   0.8757614   0.1245776   0.6246148  )
        54           C   tau(  54) = (   0.8757614   0.6246148   0.1245776  )
        55           C   tau(  55) = (   0.8746575   0.6247962   0.6247962  )
        56           C   tau(  56) = (   0.1236532   0.3748641   0.1236532  )
        57           C   tau(  57) = (   0.1272409   0.3762885   0.6227764  )
        58           C   tau(  58) = (   0.1253873   0.8741955   0.1253873  )
        59           C   tau(  59) = (   0.1245776   0.8757614   0.6246148  )
        60           C   tau(  60) = (   0.6227764   0.3762885   0.1272409  )
        61           C   tau(  61) = (   0.6342971   0.6342971   0.3687995  )
        62           C   tau(  62) = (   0.7496892  -0.0000346   0.7496892  )
        63           N   tau(  63) = (   0.3638772   0.3638772   0.3638772  )

   Crystallographic axes

     site n.     atom                  positions (cryst. coord.)
         1           C   tau(   1) = (  0.3757250  0.3757250  0.8737212  )
         2           C   tau(   2) = (  0.4999959  0.0001232  0.0001232  )
         3           C   tau(   3) = (  0.5000747  0.0000277  0.5000747  )
         4           C   tau(   4) = (  0.0001232  0.4999959  0.0001232  )
         5           C   tau(   5) = (  0.0000277  0.5000747  0.5000747  )
         6           C   tau(   6) = ( -0.0001087 -0.0001087 -0.0001087  )
         7           C   tau(   7) = (  0.0001232  0.0001232  0.4999959  )
         8           C   tau(   8) = (  0.2501588  0.2501588 -0.0013172  )
         9           C   tau(   9) = (  0.2504233  0.2504233  0.4943339  )
        10           C   tau(  10) = (  0.2504764  0.7489985  0.0010453  )
        11           C   tau(  11) = (  0.2530449  0.7475317  0.5015067  )
        12           C   tau(  12) = (  0.7489985  0.2504764  0.0010453  )
        13           C   tau(  13) = (  0.7475317  0.2530449  0.5015067  )
        14           C   tau(  14) = (  0.7496892  0.7496892 -0.0000346  )
        15           C   tau(  15) = (  0.5000747  0.5000747  0.0000277  )
        16           C   tau(  16) = (  0.7492917  0.7492917  0.4989062  )
        17           C   tau(  17) = (  0.5015067  0.2530449  0.7475317  )
        18           C   tau(  18) = (  0.5015067  0.7475317  0.2530449  )
        19           C   tau(  19) = (  0.4989062  0.7492917  0.7492917  )
        20           C   tau(  20) = ( -0.0013172  0.2501588  0.2501588  )
        21           C   tau(  21) = (  0.0010453  0.2504764  0.7489985  )
        22           C   tau(  22) = (  0.0010453  0.7489985  0.2504764  )
        23           C   tau(  23) = ( -0.0000346  0.7496892  0.7496892  )
        24           C   tau(  24) = (  0.2504233  0.4943339  0.2504233  )
        25           C   tau(  25) = (  0.2530449  0.5015067  0.7475317  )
        26           C   tau(  26) = (  0.2501588 -0.0013172  0.2501588  )
        27           C   tau(  27) = (  0.2504764  0.0010453  0.7489985  )
        28           C   tau(  28) = (  0.7475317  0.5015067  0.2530449  )
        29           C   tau(  29) = (  0.7492917  0.4989062  0.7492917  )
        30           C   tau(  30) = (  0.4943339  0.2504233  0.2504233  )
        31           C   tau(  31) = (  0.7489985  0.0010453  0.2504764  )
        32           C   tau(  32) = (  0.6247962  0.8746575  0.6247962  )
        33           C   tau(  33) = (  0.6342971  0.3687995  0.6342971  )
        34           C   tau(  34) = (  0.3759517  0.8761966  0.8761966  )
        35           C   tau(  35) = (  0.3757250  0.8737212  0.3757250  )
        36           C   tau(  36) = (  0.8761966  0.3759517  0.8761966  )
        37           C   tau(  37) = (  0.8737212  0.3757250  0.3757250  )
        38           C   tau(  38) = (  0.8747714  0.8747714  0.8747714  )
        39           C   tau(  39) = (  0.8761966  0.8761966  0.3759517  )
        40           C   tau(  40) = (  0.1253873  0.1253873  0.8741955  )
        41           C   tau(  41) = (  0.1236532  0.1236532  0.3748641  )
        42           C   tau(  42) = (  0.1245776  0.6246148  0.8757614  )
        43           C   tau(  43) = (  0.1272409  0.6227764  0.3762885  )
        44           C   tau(  44) = (  0.6246148  0.1245776  0.8757614  )
        45           C   tau(  45) = (  0.6227764  0.1272409  0.3762885  )
        46           C   tau(  46) = (  0.6246148  0.8757614  0.1245776  )
        47           C   tau(  47) = (  0.6247962  0.6247962  0.8746575  )
        48           C   tau(  48) = (  0.3748641  0.1236532  0.1236532  )
        49           C   tau(  49) = (  0.3762885  0.1272409  0.6227764  )
        50           C   tau(  50) = (  0.3762885  0.6227764  0.1272409  )
        51           C   tau(  51) = (  0.3687995  0.6342971  0.6342971  )
        52           C   tau(  52) = (  0.8741955  0.1253873  0.1253873  )
        53           C   tau(  53) = (  0.8757614  0.1245776  0.6246148  )
        54           C   tau(  54) = (  0.8757614  0.6246148  0.1245776  )
        55           C   tau(  55) = (  0.8746575  0.6247962  0.6247962  )
        56           C   tau(  56) = (  0.1236532  0.3748641  0.1236532  )
        57           C   tau(  57) = (  0.1272409  0.3762885  0.6227764  )
        58           C   tau(  58) = (  0.1253873  0.8741955  0.1253873  )
        59           C   tau(  59) = (  0.1245776  0.8757614  0.6246148  )
        60           C   tau(  60) = (  0.6227764  0.3762885  0.1272409  )
        61           C   tau(  61) = (  0.6342971  0.6342971  0.3687995  )
        62           C   tau(  62) = (  0.7496892 -0.0000346  0.7496892  )
        63           N   tau(  63) = (  0.3638772  0.3638772  0.3638772  )

     number of k points=     6  Marzari-Vanderbilt smearing, width (Ry)=  0.0010
                       cart. coord. in units 2pi/alat
        k(    1) = (   0.0000000   0.0000000   0.0000000), wk =   0.0370370
        k(    2) = (   0.0000000   0.0000000   0.3333333), wk =   0.2222222
        k(    3) = (   0.0000000   0.3333333   0.3333333), wk =   0.2222222
        k(    4) = (   0.3333333   0.3333333   0.3333333), wk =   0.0740741
        k(    5) = (  -0.3333333   0.0000000   0.3333333), wk =   0.2222222
        k(    6) = (   0.3333333  -0.3333333   0.3333333), wk =   0.2222222

                       cryst. coord.
        k(    1) = (   0.0000000   0.0000000   0.0000000), wk =   0.0370370
        k(    2) = (   0.0000000   0.0000000   0.3333333), wk =   0.2222222
        k(    3) = (   0.0000000   0.3333333   0.3333333), wk =   0.2222222
        k(    4) = (   0.3333333   0.3333333   0.3333333), wk =   0.0740741
        k(    5) = (  -0.3333333   0.0000000   0.3333333), wk =   0.2222222
        k(    6) = (   0.3333333  -0.3333333   0.3333333), wk =   0.2222222

     Dense  grid:   194039 G-vectors     FFT dimensions: (  72,  72,  72)

     Estimated max dynamical RAM per process >      60.23MB

     Estimated total allocated dynamical RAM >    5782.56MB
     Generating pointlists ...
     new r_m :   0.0853 (alat units)  1.1504 (a.u.) for type    1
     new r_m :   0.0853 (alat units)  1.1504 (a.u.) for type    2

     Initial potential from superposition of free atoms

     starting charge  252.99722, renormalised to  254.00000
     Starting wfc are  252 randomized atomic wfcs

     total cpu time spent up to now is        3.6 secs

     per-process dynamical memory:    59.5 Mb

     Self-consistent Calculation

     iteration #  1     ecut=    70.00 Ry     beta=0.50
     Davidson diagonalization with overlap
     ethr =  1.00E-02,  avg # of iterations =  3.0

     total cpu time spent up to now is        5.9 secs

     total energy              =    -724.34639212 Ry
     Harris-Foulkes estimate   =    -724.78149203 Ry
     estimated scf accuracy    <       4.21456036 Ry

     total magnetization       =     0.00 Bohr mag/cell
     absolute magnetization    =     0.90 Bohr mag/cell

     iteration #  2     ecut=    70.00 Ry     beta=0.50
     Davidson diagonalization with overlap
     ethr =  1.66E-03,  avg # of iterations =  2.0

     total cpu time spent up to now is        7.3 secs

     total energy              =    -724.67009468 Ry
     Harris-Foulkes estimate   =    -724.58559475 Ry
     estimated scf accuracy    <       0.66783645 Ry

     total magnetization       =    -0.00 Bohr mag/cell
     absolute magnetization    =     0.35 Bohr mag/cell

     iteration #  3     ecut=    70.00 Ry     beta=0.50
     Davidson diagonalization with overlap
     ethr =  2.63E-04,  avg # of iterations =  8.9

     total cpu time spent up to now is       11.3 secs

     total energy              =    -724.73836933 Ry
     Harris-Foulkes estimate   =    -724.77991134 Ry
     estimated scf accuracy    <       0.15172386 Ry

     total magnetization       =    -0.00 Bohr mag/cell
     absolute magnetization    =     0.11 Bohr mag/cell

     iteration #  4     ecut=    70.00 Ry     beta=0.50
     Davidson diagonalization with overlap
     ethr =  5.97E-05,  avg # of iterations =  7.8

     total cpu time spent up to now is       15.3 secs

     total energy              =    -724.77664790 Ry
     Harris-Foulkes estimate   =    -724.77410721 Ry
     estimated scf accuracy    <       0.01285776 Ry

     total magnetization       =     0.00 Bohr mag/cell
     absolute magnetization    =     0.07 Bohr mag/cell

     iteration #  5     ecut=    70.00 Ry     beta=0.50
     Davidson diagonalization with overlap
     c_bands:  1 eigenvalues not converged
     ethr =  5.06E-06,  avg # of iterations =  9.5

     total cpu time spent up to now is       20.3 secs

     total energy              =    -724.77984789 Ry
     Harris-Foulkes estimate   =    -724.77963474 Ry
     estimated scf accuracy    <       0.00151031 Ry

     total magnetization       =     0.00 Bohr mag/cell
     absolute magnetization    =     0.04 Bohr mag/cell

     iteration #  6     ecut=    70.00 Ry     beta=0.50
     Davidson diagonalization with overlap
     ethr =  5.95E-07,  avg # of iterations =  5.8

     total cpu time spent up to now is       23.2 secs

     total energy              =    -724.78009569 Ry
     Harris-Foulkes estimate   =    -724.78012568 Ry
     estimated scf accuracy    <       0.00019965 Ry

     total magnetization       =     0.00 Bohr mag/cell
     absolute magnetization    =     0.02 Bohr mag/cell

     iteration #  7     ecut=    70.00 Ry     beta=0.50
     Davidson diagonalization with overlap
     ethr =  7.86E-08,  avg # of iterations =  3.1

     total cpu time spent up to now is       25.3 secs

     total energy              =    -724.78015336 Ry
     Harris-Foulkes estimate   =    -724.78016245 Ry
     estimated scf accuracy    <       0.00003648 Ry

     total magnetization       =    -0.00 Bohr mag/cell
     absolute magnetization    =     0.01 Bohr mag/cell

     iteration #  8     ecut=    70.00 Ry     beta=0.50
     Davidson diagonalization with overlap
     ethr =  1.44E-08,  avg # of iterations =  2.7

     total cpu time spent up to now is       27.1 secs

     total energy              =    -724.78016116 Ry
     Harris-Foulkes estimate   =    -724.78016116 Ry
     estimated scf accuracy    <       0.00000296 Ry

     total magnetization       =     0.00 Bohr mag/cell
     absolute magnetization    =     0.01 Bohr mag/cell

     iteration #  9     ecut=    70.00 Ry     beta=0.50
     Davidson diagonalization with overlap
     ethr =  1.16E-09,  avg # of iterations =  3.3
 
     Magnetic moment per site:
     atom:    1    charge:    1.8179    magn:    0.0000    constr:    0.0000
     atom:    2    charge:    1.8326    magn:   -0.0000    constr:    0.0000
     atom:    3    charge:    1.8224    magn:    0.0000    constr:    0.0000
     atom:    4    charge:    1.8326    magn:   -0.0000    constr:    0.0000
     atom:    5    charge:    1.8224    magn:    0.0000    constr:    0.0000
     atom:    6    charge:    1.8120    magn:    0.0000    constr:    0.0000
     atom:    7    charge:    1.8326    magn:   -0.0000    constr:    0.0000
     atom:    8    charge:    1.8165    magn:    0.0000    constr:    0.0000
     atom:    9    charge:    1.7975    magn:   -0.0001    constr:    0.0000
     atom:   10    charge:    1.8105    magn:    0.0000    constr:    0.0000
     atom:   11    charge:    1.8201    magn:    0.0000    constr:    0.0000
     atom:   12    charge:    1.8105    magn:    0.0000    constr:    0.0000
     atom:   13    charge:    1.8201    magn:    0.0000    constr:    0.0000
     atom:   14    charge:    1.8165    magn:    0.0000    constr:    0.0000
     atom:   15    charge:    1.8224    magn:    0.0000    constr:    0.0000
     atom:   16    charge:    1.8259    magn:    0.0000    constr:    0.0000
     atom:   17    charge:    1.8201    magn:    0.0000    constr:    0.0000
     atom:   18    charge:    1.8201    magn:    0.0000    constr:    0.0000
     atom:   19    charge:    1.8259    magn:    0.0000    constr:    0.0000
     atom:   20    charge:    1.8165    magn:    0.0000    constr:    0.0000
     atom:   21    charge:    1.8105    magn:    0.0000    constr:    0.0000
     atom:   22    charge:    1.8105    magn:    0.0000    constr:    0.0000
     atom:   23    charge:    1.8165    magn:    0.0000    constr:    0.0000
     atom:   24    charge:    1.7975    magn:   -0.0001    constr:    0.0000
     atom:   25    charge:    1.8201    magn:    0.0000    constr:    0.0000
     atom:   26    charge:    1.8165    magn:    0.0000    constr:    0.0000
     atom:   27    charge:    1.8105    magn:    0.0000    constr:    0.0000
     atom:   28    charge:    1.8201    magn:    0.0000    constr:    0.0000
     atom:   29    charge:    1.8259    magn:    0.0000    constr:    0.0000
     atom:   30    charge:    1.7975    magn:   -0.0001    constr:    0.0000
     atom:   31    charge:    1.8105    magn:    0.0000    constr:    0.0000
     atom:   32    charge:    1.8161    magn:    0.0000    constr:    0.0000
     atom:   33    charge:    1.8224    magn:    0.0000    constr:    0.0000
     atom:   34    charge:    1.8149    magn:    0.0000    constr:    0.0000
     atom:   35    charge:    1.8179    magn:    0.0000    constr:    0.0000
     atom:   36    charge:    1.8149    magn:    0.0000    constr:    0.0000
     atom:   37    charge:    1.8179    magn:    0.0000    constr:    0.0000
     atom:   38    charge:    1.8174    magn:    0.0000    constr:    0.0000
     atom:   39    charge:    1.8149    magn:    0.0000    constr:    0.0000
     atom:   40    charge:    1.8194    magn:    0.0000    constr:    0.0000
     atom:   41    charge:    1.8277    magn:    0.0000    constr:    0.0000
     atom:   42    charge:    1.8141    magn:    0.0000    constr:    0.0000
     atom:   43    charge:    1.8126    magn:    0.0000    constr:    0.0000
     atom:   44    charge:    1.8141    magn:    0.0000    constr:    0.0000
     atom:   45    charge:    1.8126    magn:    0.0000    constr:    0.0000
     atom:   46    charge:    1.8141    magn:    0.0000    constr:    0.0000
     atom:   47    charge:    1.8161    magn:    0.0000    constr:    0.0000
     atom:   48    charge:    1.8277    magn:    0.0000    constr:    0.0000
     atom:   49    charge:    1.8126    magn:    0.0000    constr:    0.0000
     atom:   50    charge:    1.8126    magn:    0.0000    constr:    0.0000
     atom:   51    charge:    1.8224    magn:    0.0000    constr:    0.0000
     atom:   52    charge:    1.8194    magn:    0.0000    constr:    0.0000
     atom:   53    charge:    1.8141    magn:    0.0000    constr:    0.0000
     atom:   54    charge:    1.8141    magn:    0.0000    constr:    0.0000
     atom:   55    charge:    1.8161    magn:    0.0000    constr:    0.0000
     atom:   56    charge:    1.8277    magn:    0.0000    constr:    0.0000
     atom:   57    charge:    1.8126    magn:    0.0000    constr:    0.0000
     atom:   58    charge:    1.8194    magn:    0.0000    constr:    0.0000
     atom:   59    charge:    1.8141    magn:    0.0000    constr:    0.0000
     atom:   60    charge:    1.8126    magn:    0.0000    constr:    0.0000
     atom:   61    charge:    1.8224    magn:    0.0000    constr:    0.0000
     atom:   62    charge:    1.8165    magn:    0.0000    constr:    0.0000
     atom:   63    charge:    2.9112    magn:    0.0006    constr:    0.0000

     total cpu time spent up to now is       29.5 secs

     End of self-consistent calculation

 ------ SPIN UP ------------


          k = 0.0000 0.0000 0.0000 ( 24207 PWs)   bands (ev):

    -8.5640  -6.9892  -6.2725  -6.2725  -6.1584  -6.1584  -5.8849  -4.9424
    -4.1333  -4.1333  -4.1065  -4.1065  -4.0231  -4.0231  -3.9874  -3.9376
    -3.8721  -3.8721  -3.3594  -2.9699  -2.6744  -2.6744  -2.0836  -0.3816
    -0.3816  -0.3521  -0.3193  -0.1012   0.1660   0.1660   0.2810   0.2810
     0.3519   0.5909   0.8019   0.8019   0.9664   0.9664   1.0044   1.0110
     1.0110   1.0474   1.3291   1.3291   3.0460   3.8849   3.8849   4.0184
     4.2105   4.2139   4.2139   4.2153   4.2558   4.2558   4.4122   4.4122
     4.4625   4.4625   4.5796   4.6336   4.6336   4.6377   4.6503   4.7346
     4.7346   4.8679   4.9285   4.9285   5.0441   5.2044   5.2044   5.2600
     5.3222   5.3222   5.3617   5.3964   5.3964   6.0033   6.0033   6.0242
     6.5887   6.5887   6.7098   6.9678   7.0143   7.0143   7.5055   8.2941
     8.2941   8.3636   8.4403   8.4403   8.6159   8.6159   8.7742   8.7856
     8.7874   8.7874   8.8420   8.8420   8.8767   9.2295   9.2356   9.2356
     9.6599   9.6599   9.8645   9.8719   9.8719   9.8895   9.9182   9.9412
     9.9424   9.9424   9.9706   9.9706  10.0764  10.0764  10.2179  10.2179
    10.2950  11.0473  12.2434  12.4429  12.4429  13.8795  15.3059  15.3059
    17.3150  17.3366  17.3366  17.5032  17.5165  17.5165  17.8206  17.8756
    17.8756  17.9607  17.9607  18.3436  18.8928  18.8928  18.9237  20.6368
    20.7615  20.7615  20.8036  20.8876  20.8876  20.9632  20.9633  21.0045

     occupation numbers 
     1.0000   1.0000   1.0000   1.0000   1.0000   1.0000   1.0000   1.0000
     1.0000   1.0000   1.0000   1.0000   1.0000   1.0000   1.0000   1.0000
     1.0000   1.0000   1.0000   1.0000   1.0000   1.0000   1.0000   1.0000
     1.0000   1.0000   1.0000   1.0000   1.0000   1.0000   1.0000   1.0000
     1.0000   1.0000   1.0000   1.0000   1.0000   1.0000   1.0000   1.0000
     1.0000   1.0000   1.0000   1.0000   1.0000   1.0000   1.0000   1.0000
     1.0000   1.0000   1.0000   1.0000   1.0000   1.0000   1.0000   1.0000
     1.0000   1.0000   1.0000   1.0000   1.0000   1.0000   1.0000   1.0000
     1.0000   1.0000   1.0000   1.0000   1.0000   1.0000   1.0000   1.0000
     1.0000   1.0000   1.0000   1.0000   1.0000   1.0000   1.0000   1.0000
     1.0000   1.0000   1.0000   1.0000   1.0000   1.0000   1.0000   1.0000
     1.0000   1.0000   1.0000   1.0000   1.0000   1.0000   1.0000   1.0000
     1.0000   1.0000   1.0000   1.0000   1.0000   1.0000   1.0000   1.0000
     1.0000   1.0000   1.0000   1.0000   1.0000   1.0000   1.0000   1.0000
     1.0000   1.0000   1.0000   1.0000   1.0000   1.0000   1.0000   1.0000
     1.0000   1.0000   1.0000   1.0000   1.0000   1.0000   0.0000   0.0000
     0.0000   0.0000   0.0000   0.0000   0.0000   0.0000   0.0000   0.0000
     0.0000   0.0000   0.0000   0.0000   0.0000   0.0000   0.0000   0.0000
     0.0000   0.0000   0.0000   0.0000   0.0000   0.0000   0.0000   0.0000

          k = 0.0000 0.0000 0.3333 ( 24280 PWs)   bands (ev):

    -8.3363  -7.5648  -6.5834  -6.0274  -5.9184  -5.8159  -5.4934  -5.2864
    -5.1616  -4.9748  -4.5116  -4.1285  -3.7973  -3.7895  -3.6784  -3.4420
    -3.1931  -3.1472  -2.9237  -2.6024  -2.4977  -2.3764  -2.3192  -1.7712
    -0.8413  -0.6861  -0.5737  -0.3379   0.1725   0.2556   0.3740   0.4085
     0.4785   0.5650   0.5763   0.6650   0.7263   0.7427   0.9926   1.4784
     1.9858   2.0152   2.1627   2.2269   2.4240   2.4832   2.4912   2.7509
     2.9476   3.0042   3.1685   3.1792   3.8924   3.9675   4.0582   4.0704
     4.2995   4.3693   4.5077   4.5550   5.0741   5.1062   5.1423   5.2090
     5.2163   5.5869   5.6161   5.7170   5.7568   6.0654   6.1089   6.1882
     6.1975   6.3270   6.3953   6.4614   6.5150   6.6190   6.6254   6.7462
     6.7725   6.8889   6.9149   6.9408   7.1512   7.1582   7.1847   7.2721
     7.4103   7.4839   7.6772   7.7747   7.8250   8.0627   8.1405   8.2831
     8.3088   8.4497   8.6731   8.7185   8.7718   9.0984   9.2017   9.3451
     9.3834   9.6274   9.6616   9.7134   9.7970   9.9253   9.9354   9.9655
     9.9682  10.0310  10.1082  10.1126  10.1910  10.2682  10.2683  10.3629
    10.3735  11.3682  11.7165  11.7167  12.0299  13.6064  14.9950  15.1674
    17.1886  17.3024  17.9557  18.3271  18.3558  18.4950  18.5050  18.6102
    18.8237  18.8295  18.9679  19.0805  19.2106  19.8317  19.8617  20.5074
    20.6626  20.6893  20.7854  20.7961  20.8277  20.8740  20.9103  20.9405

     occupation numbers 
     1.0000   1.0000   1.0000   1.0000   1.0000   1.0000   1.0000   1.0000
     1.0000   1.0000   1.0000   1.0000   1.0000   1.0000   1.0000   1.0000
     1.0000   1.0000   1.0000   1.0000   1.0000   1.0000   1.0000   1.0000
     1.0000   1.0000   1.0000   1.0000   1.0000   1.0000   1.0000   1.0000
     1.0000   1.0000   1.0000   1.0000   1.0000   1.0000   1.0000   1.0000
     1.0000   1.0000   1.0000   1.0000   1.0000   1.0000   1.0000   1.0000
     1.0000   1.0000   1.0000   1.0000   1.0000   1.0000   1.0000   1.0000
     1.0000   1.0000   1.0000   1.0000   1.0000   1.0000   1.0000   1.0000
     1.0000   1.0000   1.0000   1.0000   1.0000   1.0000   1.0000   1.0000
     1.0000   1.0000   1.0000   1.0000   1.0000   1.0000   1.0000   1.0000
     1.0000   1.0000   1.0000   1.0000   1.0000   1.0000   1.0000   1.0000
     1.0000   1.0000   1.0000   1.0000   1.0000   1.0000   1.0000   1.0000
     1.0000   1.0000   1.0000   1.0000   1.0000   1.0000   1.0000   1.0000
     1.0000   1.0000   1.0000   1.0000   1.0000   1.0000   1.0000   1.0000
     1.0000   1.0000   1.0000   1.0000   1.0000   1.0000   1.0000   1.0000
     1.0000   1.0000   1.0000   1.0000   1.0000   1.0000   1.0000   0.0000
     0.0000   0.0000   0.0000   0.0000   0.0000   0.0000   0.0000   0.0000
     0.0000   0.0000   0.0000   0.0000   0.0000   0.0000   0.0000   0.0000
     0.0000   0.0000   0.0000   0.0000   0.0000   0.0000   0.0000   0.0000

          k = 0.0000 0.3333 0.3333 ( 24236 PWs)   bands (ev):

    -8.1248  -7.3919  -7.2206  -6.5725  -5.9589  -5.6608  -5.3316  -5.0017
    -4.9872  -4.8406  -4.4905  -4.2495  -4.2149  -3.9320  -3.5352  -3.5055
    -2.7740  -2.3677  -2.3290  -2.3140  -2.1926  -2.1855  -2.0397  -1.8769
    -1.4819  -1.3158  -1.0898  -0.9148  -0.5332  -0.0275   0.0616   0.1347
     0.1829   0.4838   0.6917   1.1917   1.2101   1.3204   1.3896   1.3993
     1.4531   1.4657   1.9483   2.0647   2.1390   2.4057   2.7275   2.8247
     2.9756   3.5125   3.6548   3.7002   3.7795   3.8210   3.9752   4.0495
     4.1313   4.5508   4.6777   4.8246   5.0434   5.0447   5.1463   5.3008
     5.3422   5.5942   5.6578   5.6928   5.7514   5.9732   6.0298   6.0803
     6.1461   6.2400   6.2823   6.4894   6.5488   6.6050   6.6602   6.8593
     6.9234   6.9537   7.0455   7.0541   7.2320   7.2930   7.4989   7.7052
     7.9394   7.9484   8.0731   8.0998   8.1221   8.2278   8.2683   8.3385
     8.3550   8.4089   8.5339   8.6474   8.6977   8.7048   8.8441   8.9021
     9.0873   9.2078   9.2441   9.3141   9.4725   9.4793   9.5785   9.6435
     9.7123   9.7902   9.9126  10.0468  10.0566  10.1376  10.4396  10.7578
    11.0149  11.2163  11.5500  11.8531  12.2338  13.4050  14.9277  15.2345
    18.0888  18.1926  18.2220  18.3059  18.3637  18.8374  18.8543  19.0054
    19.1811  19.2275  19.4403  19.4814  19.7004  19.8223  19.9710  20.0222
    20.1985  20.4473  20.4813  20.5048  20.5650  20.6036  20.6150  20.6539

     occupation numbers 
     1.0000   1.0000   1.0000   1.0000   1.0000   1.0000   1.0000   1.0000
     1.0000   1.0000   1.0000   1.0000   1.0000   1.0000   1.0000   1.0000
     1.0000   1.0000   1.0000   1.0000   1.0000   1.0000   1.0000   1.0000
     1.0000   1.0000   1.0000   1.0000   1.0000   1.0000   1.0000   1.0000
     1.0000   1.0000   1.0000   1.0000   1.0000   1.0000   1.0000   1.0000
     1.0000   1.0000   1.0000   1.0000   1.0000   1.0000   1.0000   1.0000
     1.0000   1.0000   1.0000   1.0000   1.0000   1.0000   1.0000   1.0000
     1.0000   1.0000   1.0000   1.0000   1.0000   1.0000   1.0000   1.0000
     1.0000   1.0000   1.0000   1.0000   1.0000   1.0000   1.0000   1.0000
     1.0000   1.0000   1.0000   1.0000   1.0000   1.0000   1.0000   1.0000
     1.0000   1.0000   1.0000   1.0000   1.0000   1.0000   1.0000   1.0000
     1.0000   1.0000   1.0000   1.0000   1.0000   1.0000   1.0000   1.0000
     1.0000   1.0000   1.0000   1.0000   1.0000   1.0000   1.0000   1.0000
     1.0000   1.0000   1.0000   1.0000   1.0000   1.0000   1.0000   1.0000
     1.0000   1.0000   1.0000   1.0000   1.0000   1.0000   1.0000   1.0000
     1.0000   1.0000   1.0000   1.0000   1.0000   1.0000   1.0000   0.0000
     0.0000   0.0000   0.0000   0.0000   0.0000   0.0000   0.0000   0.0000
     0.0000   0.0000   0.0000   0.0000   0.0000   0.0000   0.0000   0.0000
     0.0000   0.0000   0.0000   0.0000   0.0000   0.0000   0.0000   0.0000

          k = 0.3333 0.3333 0.3333 ( 24303 PWs)   bands (ev):

    -7.9343  -7.2213  -6.9724  -6.9724  -6.2976  -6.2140  -6.2140  -5.4498
    -4.2009  -4.0242  -4.0242  -3.5283  -3.3810  -3.3810  -3.3254  -3.3254
    -3.2841  -2.8990  -2.6665  -2.6665  -1.9435  -1.9044  -1.9044  -1.5340
    -1.4477  -1.4477  -1.3991  -1.3991  -1.3170  -1.2170  -1.2170   0.0744
     0.8436   0.8436   0.9771   0.9954   0.9954   1.3054   1.8438   1.8438
     1.8774   1.9065   2.0073   2.0073   2.5995   2.5995   2.6005   2.7108
     2.7390   2.7390   3.1467   3.1467   3.5405   4.0838   4.2937   4.2937
     4.8077   4.9246   4.9246   4.9705   5.0930   5.0930   5.1536   5.3083
     5.3083   5.3942   5.5141   5.5141   5.5758   5.5758   5.6234   6.3870
     6.7242   6.7242   6.9715   7.0078   7.0091   7.0091   7.1004   7.1004
     7.2002   7.2002   7.2498   7.2567   7.2684   7.2684   7.3715   7.3715
     7.3881   7.4998   7.7288   7.7288   7.9231   7.9231   7.9558   8.0095
     8.1897   8.1897   8.2935   8.3026   8.3026   8.4476   8.4487   8.4487
     8.6872   8.6872   8.8559   9.0834   9.1093   9.5436   9.5436   9.7899
     9.7899  10.4898  10.4898  10.5226  10.5789  10.9586  10.9586  11.2626
    11.2626  11.3144  11.4734  11.6690  11.6690  13.3209  15.2277  15.2277
    18.1626  18.2429  18.2429  18.4734  18.6393  18.6393  19.2588  19.3979
    19.3979  19.5479  19.5479  19.5735  19.6340  19.6340  19.6898  19.7412
    19.7412  19.8615  19.9204  19.9205  20.0077  20.0079  20.0279  20.2111

     occupation numbers 
     1.0000   1.0000   1.0000   1.0000   1.0000   1.0000   1.0000   1.0000
     1.0000   1.0000   1.0000   1.0000   1.0000   1.0000   1.0000   1.0000
     1.0000   1.0000   1.0000   1.0000   1.0000   1.0000   1.0000   1.0000
     1.0000   1.0000   1.0000   1.0000   1.0000   1.0000   1.0000   1.0000
     1.0000   1.0000   1.0000   1.0000   1.0000   1.0000   1.0000   1.0000
     1.0000   1.0000   1.0000   1.0000   1.0000   1.0000   1.0000   1.0000
     1.0000   1.0000   1.0000   1.0000   1.0000   1.0000   1.0000   1.0000
     1.0000   1.0000   1.0000   1.0000   1.0000   1.0000   1.0000   1.0000
     1.0000   1.0000   1.0000   1.0000   1.0000   1.0000   1.0000   1.0000
     1.0000   1.0000   1.0000   1.0000   1.0000   1.0000   1.0000   1.0000
     1.0000   1.0000   1.0000   1.0000   1.0000   1.0000   1.0000   1.0000
     1.0000   1.0000   1.0000   1.0000   1.0000   1.0000   1.0000   1.0000
     1.0000   1.0000   1.0000   1.0000   1.0000   1.0000   1.0000   1.0000
     1.0000   1.0000   1.0000   1.0000   1.0000   1.0000   1.0000   1.0000
     1.0000   1.0000   1.0000   1.0000   1.0000   1.0000   1.0000   1.0000
     1.0000   1.0000   1.0000   1.0000   1.0000   1.0000   0.0000   0.0000
     0.0000   0.0000   0.0000   0.0000   0.0000   0.0000   0.0000   0.0000
     0.0000   0.0000   0.0000   0.0000   0.0000   0.0000   0.0000   0.0000
     0.0000   0.0000   0.0000   0.0000   0.0000   0.0000   0.0000   0.0000

          k =-0.3333 0.0000 0.3333 ( 24236 PWs)   bands (ev):

    -8.1108  -7.5068  -7.0974  -6.5582  -6.0005  -5.6670  -5.3644  -5.0283
    -4.9250  -4.7566  -4.5113  -4.2947  -4.2240  -4.0375  -3.5821  -3.3285
    -2.7627  -2.4024  -2.3596  -2.2853  -2.1918  -2.1663  -2.0911  -1.6548
    -1.6337  -1.3075  -1.1098  -0.9866  -0.5824   0.0107   0.0772   0.1182
     0.2770   0.4993   0.8863   1.0555   1.2077   1.2252   1.2560   1.3979
     1.4872   1.5819   1.8696   1.9067   2.1387   2.5944   2.6825   2.8690
     2.9521   3.5039   3.6551   3.7149   3.7897   3.8950   4.0270   4.1172
     4.1779   4.4000   4.6204   4.8123   4.9701   5.0198   5.1858   5.2533
     5.4264   5.5699   5.6483   5.6943   5.7997   6.0361   6.0847   6.1374
     6.1820   6.2237   6.2753   6.4343   6.4777   6.6214   6.6444   6.8167
     6.8926   6.9696   7.0177   7.0995   7.2376   7.3894   7.5087   7.6803
     7.8514   7.8932   7.9698   8.0874   8.1803   8.2146   8.2634   8.2892
     8.3790   8.4382   8.5567   8.5950   8.7395   8.7565   8.8976   8.9572
     9.0812   9.1403   9.2343   9.3252   9.4526   9.4993   9.5239   9.6638
     9.7372   9.7556   9.9460  10.0306  10.0753  10.0954  10.5130  10.8834
    10.9814  11.1540  11.5106  11.7637  12.2320  13.6619  14.8446  15.1251
    18.0665  18.2003  18.2667  18.3156  18.3659  18.8057  18.9223  19.0946
    19.1533  19.2809  19.3526  19.4912  19.6959  19.8393  19.8971  20.0315
    20.2528  20.3676  20.4307  20.5255  20.5581  20.6003  20.6413  20.6801

     occupation numbers 
     1.0000   1.0000   1.0000   1.0000   1.0000   1.0000   1.0000   1.0000
     1.0000   1.0000   1.0000   1.0000   1.0000   1.0000   1.0000   1.0000
     1.0000   1.0000   1.0000   1.0000   1.0000   1.0000   1.0000   1.0000
     1.0000   1.0000   1.0000   1.0000   1.0000   1.0000   1.0000   1.0000
     1.0000   1.0000   1.0000   1.0000   1.0000   1.0000   1.0000   1.0000
     1.0000   1.0000   1.0000   1.0000   1.0000   1.0000   1.0000   1.0000
     1.0000   1.0000   1.0000   1.0000   1.0000   1.0000   1.0000   1.0000
     1.0000   1.0000   1.0000   1.0000   1.0000   1.0000   1.0000   1.0000
     1.0000   1.0000   1.0000   1.0000   1.0000   1.0000   1.0000   1.0000
     1.0000   1.0000   1.0000   1.0000   1.0000   1.0000   1.0000   1.0000
     1.0000   1.0000   1.0000   1.0000   1.0000   1.0000   1.0000   1.0000
     1.0000   1.0000   1.0000   1.0000   1.0000   1.0000   1.0000   1.0000
     1.0000   1.0000   1.0000   1.0000   1.0000   1.0000   1.0000   1.0000
     1.0000   1.0000   1.0000   1.0000   1.0000   1.0000   1.0000   1.0000
     1.0000   1.0000   1.0000   1.0000   1.0000   1.0000   1.0000   1.0000
     1.0000   1.0000   1.0000   1.0000   1.0000   1.0000   1.0000   0.5000
     0.0000   0.0000   0.0000   0.0000   0.0000   0.0000   0.0000   0.0000
     0.0000   0.0000   0.0000   0.0000   0.0000   0.0000   0.0000   0.0000
     0.0000   0.0000   0.0000   0.0000   0.0000   0.0000   0.0000   0.0000

          k = 0.3333-0.3333 0.3333 ( 24303 PWs)   bands (ev):

    -7.9080  -7.3596  -6.9729  -6.8220  -6.4649  -6.2129  -5.9797  -5.4893
    -4.4888  -4.0265  -3.9330  -3.7039  -3.4046  -3.3585  -3.3116  -3.2113
    -3.0721  -2.8839  -2.6863  -2.4227  -2.0598  -1.8827  -1.8497  -1.7145
    -1.4862  -1.4584  -1.4172  -1.3537  -1.3525  -1.2607  -1.1684  -0.0508
     0.7561   0.8847   0.9660   0.9986   1.0641   1.4210   1.7424   1.7836
     1.8615   1.9442   2.0478   2.2458   2.5787   2.6166   2.6882   2.7067
     2.7272   2.7832   2.9231   3.1806   3.5122   3.9940   4.2377   4.3172
     4.8231   4.8248   4.8609   5.0139   5.0259   5.0740   5.2004   5.2601
     5.2870   5.4421   5.4468   5.5039   5.6855   5.7763   5.8333   6.4596
     6.6968   6.7577   6.9243   6.9320   6.9725   7.0529   7.0744   7.0992
     7.1685   7.1956   7.2389   7.2678   7.2742   7.3200   7.3343   7.3563
     7.3839   7.4622   7.7376   7.7485   7.8281   7.9319   7.9555   7.9660
     8.1331   8.1599   8.2756   8.2895   8.3820   8.3905   8.4139   8.4965
     8.7039   8.7367   8.9727   8.9848   9.1224   9.5329   9.5980   9.6964
     9.8914  10.4063  10.5171  10.5274  10.5557  10.9355  10.9467  11.2066
    11.2275  11.3017  11.4483  11.7200  11.7437  13.6875  14.9119  15.2146
    18.1291  18.2580  18.3414  18.5456  18.6590  18.7259  19.2135  19.3974
    19.4312  19.5102  19.5349  19.5546  19.6088  19.6298  19.6626  19.7333
    19.7418  19.7943  19.9190  19.9225  19.9954  20.0009  20.0438  20.1553

     occupation numbers 
     1.0000   1.0000   1.0000   1.0000   1.0000   1.0000   1.0000   1.0000
     1.0000   1.0000   1.0000   1.0000   1.0000   1.0000   1.0000   1.0000
     1.0000   1.0000   1.0000   1.0000   1.0000   1.0000   1.0000   1.0000
     1.0000   1.0000   1.0000   1.0000   1.0000   1.0000   1.0000   1.0000
     1.0000   1.0000   1.0000   1.0000   1.0000   1.0000   1.0000   1.0000
     1.0000   1.0000   1.0000   1.0000   1.0000   1.0000   1.0000   1.0000
     1.0000   1.0000   1.0000   1.0000   1.0000   1.0000   1.0000   1.0000
     1.0000   1.0000   1.0000   1.0000   1.0000   1.0000   1.0000   1.0000
     1.0000   1.0000   1.0000   1.0000   1.0000   1.0000   1.0000   1.0000
     1.0000   1.0000   1.0000   1.0000   1.0000   1.0000   1.0000   1.0000
     1.0000   1.0000   1.0000   1.0000   1.0000   1.0000   1.0000   1.0000
     1.0000   1.0000   1.0000   1.0000   1.0000   1.0000   1.0000   1.0000
     1.0000   1.0000   1.0000   1.0000   1.0000   1.0000   1.0000   1.0000
     1.0000   1.0000   1.0000   1.0000   1.0000   1.0000   1.0000   1.0000
     1.0000   1.0000   1.0000   1.0000   1.0000   1.0000   1.0000   1.0000
     1.0000   1.0000   1.0000   1.0000   1.0000   1.0000   1.0000   0.0000
     0.0000   0.0000   0.0000   0.0000   0.0000   0.0000   0.0000   0.0000
     0.0000   0.0000   0.0000   0.0000   0.0000   0.0000   0.0000   0.0000
     0.0000   0.0000   0.0000   0.0000   0.0000   0.0000   0.0000   0.0000

 ------ SPIN DOWN ----------


          k = 0.0000 0.0000 0.0000 ( 24207 PWs)   bands (ev):

    -8.5641  -6.9887  -6.2727  -6.2727  -6.1585  -6.1585  -5.8850  -4.9420
    -4.1335  -4.1335  -4.1067  -4.1067  -4.0232  -4.0232  -3.9875  -3.9377
    -3.8722  -3.8722  -3.3595  -2.9699  -2.6746  -2.6746  -2.0835  -0.3818
    -0.3818  -0.3523  -0.3194  -0.1010   0.1659   0.1659   0.2809   0.2809
     0.3517   0.5910   0.8017   0.8017   0.9664   0.9664   1.0043   1.0109
     1.0109   1.0474   1.3291   1.3291   3.0460   3.8850   3.8850   4.0184
     4.2105   4.2139   4.2139   4.2152   4.2558   4.2558   4.4121   4.4121
     4.4624   4.4624   4.5795   4.6335   4.6335   4.6377   4.6502   4.7345
     4.7345   4.8678   4.9283   4.9283   5.0441   5.2044   5.2044   5.2599
     5.3220   5.3220   5.3617   5.3963   5.3963   6.0032   6.0032   6.0241
     6.5888   6.5888   6.7097   6.9678   7.0143   7.0143   7.5054   8.2942
     8.2942   8.3636   8.4403   8.4403   8.6160   8.6160   8.7741   8.7856
     8.7874   8.7874   8.8420   8.8420   8.8767   9.2295   9.2356   9.2356
     9.6600   9.6600   9.8645   9.8719   9.8719   9.8895   9.9183   9.9412
     9.9424   9.9424   9.9706   9.9706  10.0765  10.0765  10.2179  10.2179
    10.2950  11.0477  12.2435  12.4429  12.4429  13.8804  15.3059  15.3059
    17.3151  17.3365  17.3365  17.5032  17.5165  17.5165  17.8206  17.8755
    17.8755  17.9606  17.9606  18.3435  18.8929  18.8929  18.9238  20.6370
    20.7614  20.7615  20.8037  20.8876  20.8876  20.9633  20.9633  21.0042

     occupation numbers 
     1.0000   1.0000   1.0000   1.0000   1.0000   1.0000   1.0000   1.0000
     1.0000   1.0000   1.0000   1.0000   1.0000   1.0000   1.0000   1.0000
     1.0000   1.0000   1.0000   1.0000   1.0000   1.0000   1.0000   1.0000
     1.0000   1.0000   1.0000   1.0000   1.0000   1.0000   1.0000   1.0000
     1.0000   1.0000   1.0000   1.0000   1.0000   1.0000   1.0000   1.0000
     1.0000   1.0000   1.0000   1.0000   1.0000   1.0000   1.0000   1.0000
     1.0000   1.0000   1.0000   1.0000   1.0000   1.0000   1.0000   1.0000
     1.0000   1.0000   1.0000   1.0000   1.0000   1.0000   1.0000   1.0000
     1.0000   1.0000   1.0000   1.0000   1.0000   1.0000   1.0000   1.0000
     1.0000   1.0000   1.0000   1.0000   1.0000   1.0000   1.0000   1.0000
     1.0000   1.0000   1.0000   1.0000   1.0000   1.0000   1.0000   1.0000
     1.0000   1.0000   1.0000   1.0000   1.0000   1.0000   1.0000   1.0000
     1.0000   1.0000   1.0000   1.0000   1.0000   1.0000   1.0000   1.0000
     1.0000   1.0000   1.0000   1.0000   1.0000   1.0000   1.0000   1.0000
     1.0000   1.0000   1.0000   1.0000   1.0000   1.0000   1.0000   1.0000
     1.0000   1.0000   1.0000   1.0000   1.0000   1.0000   0.0000   0.0000
     0.0000   0.0000   0.0000   0.0000   0.0000   0.0000   0.0000   0.0000
     0.0000   0.0000   0.0000   0.0000   0.0000   0.0000   0.0000   0.0000
     0.0000   0.0000   0.0000   0.0000   0.0000   0.0000   0.0000   0.0000

          k = 0.0000 0.0000 0.3333 ( 24280 PWs)   bands (ev):

    -8.3363  -7.5648  -6.5829  -6.0275  -5.9185  -5.8160  -5.4934  -5.2865
    -5.1617  -4.9749  -4.5116  -4.1285  -3.7974  -3.7897  -3.6785  -3.4420
    -3.1932  -3.1473  -2.9238  -2.6025  -2.4979  -2.3765  -2.3193  -1.7712
    -0.8413  -0.6862  -0.5738  -0.3379   0.1725   0.2555   0.3739   0.4084
     0.4784   0.5649   0.5762   0.6649   0.7262   0.7426   0.9925   1.4783
     1.9858   2.0152   2.1626   2.2269   2.4239   2.4831   2.4912   2.7508
     2.9476   3.0042   3.1684   3.1792   3.8923   3.9674   4.0581   4.0703
     4.2994   4.3692   4.5076   4.5549   5.0741   5.1062   5.1422   5.2090
     5.2162   5.5869   5.6160   5.7170   5.7568   6.0654   6.1089   6.1881
     6.1974   6.3270   6.3952   6.4613   6.5149   6.6190   6.6253   6.7461
     6.7725   6.8889   6.9149   6.9407   7.1512   7.1582   7.1847   7.2721
     7.4103   7.4839   7.6772   7.7747   7.8250   8.0627   8.1405   8.2831
     8.3088   8.4497   8.6731   8.7186   8.7718   9.0984   9.2017   9.3452
     9.3835   9.6274   9.6616   9.7134   9.7971   9.9253   9.9354   9.9655
     9.9682  10.0310  10.1082  10.1126  10.1910  10.2682  10.2683  10.3629
    10.3735  11.3687  11.7165  11.7166  12.0300  13.6072  14.9949  15.1673
    17.1886  17.3024  17.9558  18.3272  18.3558  18.4950  18.5050  18.6102
    18.8237  18.8294  18.9678  19.0804  19.2106  19.8319  19.8619  20.5076
    20.6625  20.6894  20.7855  20.7961  20.8277  20.8740  20.9104  20.9405

     occupation numbers 
     1.0000   1.0000   1.0000   1.0000   1.0000   1.0000   1.0000   1.0000
     1.0000   1.0000   1.0000   1.0000   1.0000   1.0000   1.0000   1.0000
     1.0000   1.0000   1.0000   1.0000   1.0000   1.0000   1.0000   1.0000
     1.0000   1.0000   1.0000   1.0000   1.0000   1.0000   1.0000   1.0000
     1.0000   1.0000   1.0000   1.0000   1.0000   1.0000   1.0000   1.0000
     1.0000   1.0000   1.0000   1.0000   1.0000   1.0000   1.0000   1.0000
     1.0000   1.0000   1.0000   1.0000   1.0000   1.0000   1.0000   1.0000
     1.0000   1.0000   1.0000   1.0000   1.0000   1.0000   1.0000   1.0000
     1.0000   1.0000   1.0000   1.0000   1.0000   1.0000   1.0000   1.0000
     1.0000   1.0000   1.0000   1.0000   1.0000   1.0000   1.0000   1.0000
     1.0000   1.0000   1.0000   1.0000   1.0000   1.0000   1.0000   1.0000
     1.0000   1.0000   1.0000   1.0000   1.0000   1.0000   1.0000   1.0000
     1.0000   1.0000   1.0000   1.0000   1.0000   1.0000   1.0000   1.0000
     1.0000   1.0000   1.0000   1.0000   1.0000   1.0000   1.0000   1.0000
     1.0000   1.0000   1.0000   1.0000   1.0000   1.0000   1.0000   1.0000
     1.0000   1.0000   1.0000   1.0000   1.0000   1.0000   1.0000   0.0000
     0.0000   0.0000   0.0000   0.0000   0.0000   0.0000   0.0000   0.0000
     0.0000   0.0000   0.0000   0.0000   0.0000   0.0000   0.0000   0.0000
     0.0000   0.0000   0.0000   0.0000   0.0000   0.0000   0.0000   0.0000

          k = 0.0000 0.3333 0.3333 ( 24236 PWs)   bands (ev):

    -8.1247  -7.3918  -7.2208  -6.5725  -5.9588  -5.6609  -5.3315  -5.0018
    -4.9873  -4.8407  -4.4905  -4.2497  -4.2150  -3.9322  -3.5351  -3.5057
    -2.7738  -2.3678  -2.3291  -2.3141  -2.1927  -2.1856  -2.0398  -1.8770
    -1.4820  -1.3160  -1.0899  -0.9149  -0.5333  -0.0275   0.0615   0.1346
     0.1828   0.4838   0.6916   1.1916   1.2100   1.3203   1.3895   1.3991
     1.4530   1.4656   1.9482   2.0646   2.1389   2.4056   2.7274   2.8247
     2.9756   3.5124   3.6547   3.7001   3.7794   3.8209   3.9751   4.0495
     4.1313   4.5507   4.6776   4.8245   5.0433   5.0447   5.1462   5.3008
     5.3422   5.5941   5.6578   5.6927   5.7514   5.9733   6.0298   6.0803
     6.1461   6.2400   6.2822   6.4894   6.5488   6.6050   6.6601   6.8593
     6.9233   6.9537   7.0455   7.0540   7.2320   7.2930   7.4989   7.7052
     7.9394   7.9484   8.0731   8.0997   8.1221   8.2278   8.2683   8.3385
     8.3549   8.4088   8.5338   8.6474   8.6977   8.7048   8.8441   8.9021
     9.0873   9.2079   9.2441   9.3140   9.4725   9.4793   9.5785   9.6435
     9.7124   9.7902   9.9126  10.0469  10.0566  10.1376  10.4397  10.7579
    11.0149  11.2164  11.5500  11.8534  12.2338  13.4057  14.9276  15.2344
    18.0888  18.1925  18.2220  18.3059  18.3636  18.8374  18.8544  19.0055
    19.1812  19.2276  19.4403  19.4813  19.7003  19.8223  19.9709  20.0224
    20.1987  20.4474  20.4814  20.5049  20.5651  20.6037  20.6150  20.6540

     occupation numbers 
     1.0000   1.0000   1.0000   1.0000   1.0000   1.0000   1.0000   1.0000
     1.0000   1.0000   1.0000   1.0000   1.0000   1.0000   1.0000   1.0000
     1.0000   1.0000   1.0000   1.0000   1.0000   1.0000   1.0000   1.0000
     1.0000   1.0000   1.0000   1.0000   1.0000   1.0000   1.0000   1.0000
     1.0000   1.0000   1.0000   1.0000   1.0000   1.0000   1.0000   1.0000
     1.0000   1.0000   1.0000   1.0000   1.0000   1.0000   1.0000   1.0000
     1.0000   1.0000   1.0000   1.0000   1.0000   1.0000   1.0000   1.0000
     1.0000   1.0000   1.0000   1.0000   1.0000   1.0000   1.0000   1.0000
     1.0000   1.0000   1.0000   1.0000   1.0000   1.0000   1.0000   1.0000
     1.0000   1.0000   1.0000   1.0000   1.0000   1.0000   1.0000   1.0000
     1.0000   1.0000   1.0000   1.0000   1.0000   1.0000   1.0000   1.0000
     1.0000   1.0000   1.0000   1.0000   1.0000   1.0000   1.0000   1.0000
     1.0000   1.0000   1.0000   1.0000   1.0000   1.0000   1.0000   1.0000
     1.0000   1.0000   1.0000   1.0000   1.0000   1.0000   1.0000   1.0000
     1.0000   1.0000   1.0000   1.0000   1.0000   1.0000   1.0000   1.0000
     1.0000   1.0000   1.0000   1.0000   1.0000   1.0000   1.0000   0.0000
     0.0000   0.0000   0.0000   0.0000   0.0000   0.0000   0.0000   0.0000
     0.0000   0.0000   0.0000   0.0000   0.0000   0.0000   0.0000   0.0000
     0.0000   0.0000   0.0000   0.0000   0.0000   0.0000   0.0000   0.0000

          k = 0.3333 0.3333 0.3333 ( 24303 PWs)   bands (ev):

    -7.9342  -7.2212  -6.9726  -6.9726  -6.2975  -6.2142  -6.2142  -5.4498
    -4.2007  -4.0243  -4.0243  -3.5282  -3.3812  -3.3812  -3.3256  -3.3256
    -3.2842  -2.8991  -2.6666  -2.6666  -1.9436  -1.9045  -1.9045  -1.5341
    -1.4478  -1.4478  -1.3992  -1.3992  -1.3171  -1.2170  -1.2170   0.0744
     0.8435   0.8435   0.9770   0.9953   0.9953   1.3053   1.8437   1.8437
     1.8773   1.9066   2.0072   2.0072   2.5995   2.5995   2.6004   2.7107
     2.7389   2.7389   3.1467   3.1467   3.5405   4.0837   4.2936   4.2936
     4.8077   4.9246   4.9246   4.9704   5.0929   5.0929   5.1536   5.3083
     5.3083   5.3941   5.5140   5.5140   5.5758   5.5758   5.6233   6.3869
     6.7243   6.7243   6.9715   7.0078   7.0091   7.0091   7.1003   7.1003
     7.2001   7.2001   7.2497   7.2567   7.2683   7.2683   7.3715   7.3715
     7.3880   7.4998   7.7288   7.7288   7.9231   7.9231   7.9558   8.0095
     8.1897   8.1897   8.2935   8.3025   8.3025   8.4476   8.4487   8.4487
     8.6872   8.6872   8.8561   9.0834   9.1093   9.5437   9.5437   9.7899
     9.7899  10.4898  10.4898  10.5226  10.5790  10.9587  10.9587  11.2627
    11.2627  11.3144  11.4736  11.6690  11.6690  13.3218  15.2277  15.2277
    18.1627  18.2428  18.2428  18.4734  18.6393  18.6393  19.2590  19.3979
    19.3979  19.5479  19.5479  19.5735  19.6340  19.6340  19.6897  19.7412
    19.7413  19.8615  19.9205  19.9206  20.0077  20.0079  20.0279  20.2108

     occupation numbers 
     1.0000   1.0000   1.0000   1.0000   1.0000   1.0000   1.0000   1.0000
     1.0000   1.0000   1.0000   1.0000   1.0000   1.0000   1.0000   1.0000
     1.0000   1.0000   1.0000   1.0000   1.0000   1.0000   1.0000   1.0000
     1.0000   1.0000   1.0000   1.0000   1.0000   1.0000   1.0000   1.0000
     1.0000   1.0000   1.0000   1.0000   1.0000   1.0000   1.0000   1.0000
     1.0000   1.0000   1.0000   1.0000   1.0000   1.0000   1.0000   1.0000
     1.0000   1.0000   1.0000   1.0000   1.0000   1.0000   1.0000   1.0000
     1.0000   1.0000   1.0000   1.0000   1.0000   1.0000   1.0000   1.0000
     1.0000   1.0000   1.0000   1.0000   1.0000   1.0000   1.0000   1.0000
     1.0000   1.0000   1.0000   1.0000   1.0000   1.0000   1.0000   1.0000
     1.0000   1.0000   1.0000   1.0000   1.0000   1.0000   1.0000   1.0000
     1.0000   1.0000   1.0000   1.0000   1.0000   1.0000   1.0000   1.0000
     1.0000   1.0000   1.0000   1.0000   1.0000   1.0000   1.0000   1.0000
     1.0000   1.0000   1.0000   1.0000   1.0000   1.0000   1.0000   1.0000
     1.0000   1.0000   1.0000   1.0000   1.0000   1.0000   1.0000   1.0000
     1.0000   1.0000   1.0000   1.0000   1.0000   1.0000   0.0000   0.0000
     0.0000   0.0000   0.0000   0.0000   0.0000   0.0000   0.0000   0.0000
     0.0000   0.0000   0.0000   0.0000   0.0000   0.0000   0.0000   0.0000
     0.0000   0.0000   0.0000   0.0000   0.0000   0.0000   0.0000   0.0000

          k =-0.3333 0.0000 0.3333 ( 24236 PWs)   bands (ev):

    -8.1107  -7.5068  -7.0975  -6.5581  -6.0004  -5.6672  -5.3644  -5.0285
    -4.9251  -4.7567  -4.5113  -4.2949  -4.2241  -4.0376  -3.5822  -3.3286
    -2.7625  -2.4026  -2.3597  -2.2854  -2.1919  -2.1664  -2.0912  -1.6549
    -1.6338  -1.3076  -1.1098  -0.9867  -0.5824   0.0105   0.0772   0.1181
     0.2769   0.4992   0.8862   1.0555   1.2076   1.2251   1.2559   1.3978
     1.4871   1.5818   1.8696   1.9067   2.1386   2.5943   2.6824   2.8690
     2.9521   3.5039   3.6550   3.7148   3.7896   3.8949   4.0269   4.1172
     4.1778   4.4000   4.6204   4.8123   4.9700   5.0198   5.1858   5.2533
     5.4264   5.5699   5.6482   5.6943   5.7996   6.0361   6.0846   6.1374
     6.1819   6.2237   6.2753   6.4343   6.4777   6.6213   6.6443   6.8167
     6.8926   6.9695   7.0176   7.0995   7.2376   7.3894   7.5087   7.6803
     7.8514   7.8932   7.9698   8.0874   8.1803   8.2146   8.2634   8.2892
     8.3790   8.4383   8.5567   8.5950   8.7395   8.7565   8.8976   8.9571
     9.0812   9.1403   9.2343   9.3252   9.4526   9.4993   9.5238   9.6638
     9.7372   9.7556   9.9460  10.0306  10.0753  10.0955  10.5131  10.8834
    10.9816  11.1542  11.5106  11.7641  12.2319  13.6626  14.8445  15.1250
    18.0665  18.2002  18.2667  18.3155  18.3658  18.8058  18.9223  19.0946
    19.1534  19.2809  19.3526  19.4912  19.6959  19.8393  19.8971  20.0315
    20.2530  20.3677  20.4308  20.5256  20.5582  20.6004  20.6412  20.6803

     occupation numbers 
     1.0000   1.0000   1.0000   1.0000   1.0000   1.0000   1.0000   1.0000
     1.0000   1.0000   1.0000   1.0000   1.0000   1.0000   1.0000   1.0000
     1.0000   1.0000   1.0000   1.0000   1.0000   1.0000   1.0000   1.0000
     1.0000   1.0000   1.0000   1.0000   1.0000   1.0000   1.0000   1.0000
     1.0000   1.0000   1.0000   1.0000   1.0000   1.0000   1.0000   1.0000
     1.0000   1.0000   1.0000   1.0000   1.0000   1.0000   1.0000   1.0000
     1.0000   1.0000   1.0000   1.0000   1.0000   1.0000   1.0000   1.0000
     1.0000   1.0000   1.0000   1.0000   1.0000   1.0000   1.0000   1.0000
     1.0000   1.0000   1.0000   1.0000   1.0000   1.0000   1.0000   1.0000
     1.0000   1.0000   1.0000   1.0000   1.0000   1.0000   1.0000   1.0000
     1.0000   1.0000   1.0000   1.0000   1.0000   1.0000   1.0000   1.0000
     1.0000   1.0000   1.0000   1.0000   1.0000   1.0000   1.0000   1.0000
     1.0000   1.0000   1.0000   1.0000   1.0000   1.0000   1.0000   1.0000
     1.0000   1.0000   1.0000   1.0000   1.0000   1.0000   1.0000   1.0000
     1.0000   1.0000   1.0000   1.0000   1.0000   1.0000   1.0000   1.0000
     1.0000   1.0000   1.0000   1.0000   1.0000   1.0000   1.0000   0.5000
     0.0000   0.0000   0.0000   0.0000   0.0000   0.0000   0.0000   0.0000
     0.0000   0.0000   0.0000   0.0000   0.0000   0.0000   0.0000   0.0000
     0.0000   0.0000   0.0000   0.0000   0.0000   0.0000   0.0000   0.0000

          k = 0.3333-0.3333 0.3333 ( 24303 PWs)   bands (ev):

    -7.9079  -7.3595  -6.9730  -6.8222  -6.4649  -6.2131  -5.9798  -5.4892
    -4.4886  -4.0267  -3.9331  -3.7039  -3.4048  -3.3586  -3.3117  -3.2114
    -3.0723  -2.8839  -2.6864  -2.4227  -2.0599  -1.8828  -1.8498  -1.7145
    -1.4863  -1.4586  -1.4173  -1.3538  -1.3526  -1.2607  -1.1684  -0.0508
     0.7560   0.8846   0.9659   0.9985   1.0640   1.4209   1.7423   1.7836
     1.8614   1.9441   2.0477   2.2457   2.5787   2.6165   2.6881   2.7066
     2.7271   2.7831   2.9230   3.1805   3.5121   3.9940   4.2377   4.3171
     4.8231   4.8248   4.8608   5.0138   5.0258   5.0739   5.2004   5.2600
     5.2870   5.4420   5.4467   5.5038   5.6854   5.7762   5.8333   6.4596
     6.6969   6.7578   6.9243   6.9320   6.9724   7.0529   7.0744   7.0992
     7.1685   7.1956   7.2388   7.2678   7.2742   7.3200   7.3343   7.3563
     7.3839   7.4622   7.7376   7.7485   7.8281   7.9319   7.9554   7.9660
     8.1331   8.1599   8.2756   8.2895   8.3820   8.3905   8.4139   8.4965
     8.7039   8.7367   8.9727   8.9848   9.1224   9.5329   9.5980   9.6966
     9.8914  10.4063  10.5171  10.5274  10.5557  10.9356  10.9468  11.2067
    11.2276  11.3017  11.4485  11.7200  11.7437  13.6884  14.9118  15.2145
    18.1291  18.2579  18.3413  18.5456  18.6590  18.7258  19.2136  19.3975
    19.4312  19.5101  19.5348  19.5546  19.6088  19.6297  19.6626  19.7333
    19.7418  19.7943  19.9190  19.9226  19.9954  20.0009  20.0437  20.1553

     occupation numbers 
     1.0000   1.0000   1.0000   1.0000   1.0000   1.0000   1.0000   1.0000
     1.0000   1.0000   1.0000   1.0000   1.0000   1.0000   1.0000   1.0000
     1.0000   1.0000   1.0000   1.0000   1.0000   1.0000   1.0000   1.0000
     1.0000   1.0000   1.0000   1.0000   1.0000   1.0000   1.0000   1.0000
     1.0000   1.0000   1.0000   1.0000   1.0000   1.0000   1.0000   1.0000
     1.0000   1.0000   1.0000   1.0000   1.0000   1.0000   1.0000   1.0000
     1.0000   1.0000   1.0000   1.0000   1.0000   1.0000   1.0000   1.0000
     1.0000   1.0000   1.0000   1.0000   1.0000   1.0000   1.0000   1.0000
     1.0000   1.0000   1.0000   1.0000   1.0000   1.0000   1.0000   1.0000
     1.0000   1.0000   1.0000   1.0000   1.0000   1.0000   1.0000   1.0000
     1.0000   1.0000   1.0000   1.0000   1.0000   1.0000   1.0000   1.0000
     1.0000   1.0000   1.0000   1.0000   1.0000   1.0000   1.0000   1.0000
     1.0000   1.0000   1.0000   1.0000   1.0000   1.0000   1.0000   1.0000
     1.0000   1.0000   1.0000   1.0000   1.0000   1.0000   1.0000   1.0000
     1.0000   1.0000   1.0000   1.0000   1.0000   1.0000   1.0000   1.0000
     1.0000   1.0000   1.0000   1.0000   1.0000   1.0000   1.0000   0.0000
     0.0000   0.0000   0.0000   0.0000   0.0000   0.0000   0.0000   0.0000
     0.0000   0.0000   0.0000   0.0000   0.0000   0.0000   0.0000   0.0000
     0.0000   0.0000   0.0000   0.0000   0.0000   0.0000   0.0000   0.0000

     the spin up/dw Fermi energies are    15.1270   15.1269 ev

!    total energy              =    -724.78016253 Ry
     Harris-Foulkes estimate   =    -724.78016212 Ry
     estimated scf accuracy    <       0.00000047 Ry

     The total energy is the sum of the following terms:

     one-electron contribution =     233.04330567 Ry
     hartree contribution      =      69.05689699 Ry
     xc contribution           =    -226.33439501 Ry
     ewald contribution        =    -800.54589724 Ry
     smearing contrib. (-TS)   =      -0.00007293 Ry

     total magnetization       =     0.00 Bohr mag/cell
     absolute magnetization    =     0.00 Bohr mag/cell

     convergence has been achieved in   9 iterations

     Writing output data file di.save
 
     init_run     :      1.32s CPU      1.71s WALL (       1 calls)
     electrons    :     25.51s CPU     25.91s WALL (       1 calls)

     Called by init_run:
     wfcinit      :      0.76s CPU      0.84s WALL (       1 calls)
     wfcinit:atom :      0.00s CPU      0.01s WALL (       2 calls)
     wfcinit:wfcr :      0.71s CPU      0.78s WALL (       2 calls)
     potinit      :      0.09s CPU      0.10s WALL (       1 calls)

     Called by electrons:
     c_bands      :     23.91s CPU     24.28s WALL (       9 calls)
     sum_band     :      1.08s CPU      1.10s WALL (       9 calls)
     v_of_rho     :      0.36s CPU      0.37s WALL (      10 calls)
     v_h          :      0.01s CPU      0.01s WALL (      10 calls)
     v_xc         :      0.35s CPU      0.36s WALL (      10 calls)
     mix_rho      :      0.06s CPU      0.06s WALL (       9 calls)

     Called by c_bands:
     init_us_2    :      0.17s CPU      0.18s WALL (      38 calls)
     cegterg      :     22.01s CPU     22.35s WALL (      18 calls)

     Called by sum_band:

     Called by *egterg:
     h_psi        :      8.40s CPU      8.52s WALL (     137 calls)
     g_psi        :      0.05s CPU      0.05s WALL (     117 calls)
     cdiaghg      :      9.93s CPU      9.97s WALL (     135 calls)
     cegterg:over :      1.66s CPU      1.67s WALL (     117 calls)
     cegterg:upda :      1.26s CPU      1.26s WALL (     117 calls)
     cegterg:last :      0.46s CPU      0.46s WALL (      18 calls)

     Called by h_psi:
     h_psi:pot    :      8.30s CPU      8.42s WALL (     137 calls)
     h_psi:calbec :      1.81s CPU      1.83s WALL (     137 calls)
     vloc_psi     :      4.62s CPU      4.70s WALL (     137 calls)
     add_vuspsi   :      1.88s CPU      1.89s WALL (     137 calls)

     General routines
     calbec       :      1.81s CPU      1.83s WALL (     137 calls)
     fft          :      0.11s CPU      0.33s WALL (     207 calls)
     fftw         :      4.92s CPU      4.93s WALL (   18350 calls)
 
     Parallel routines
     fft_scatter  :      1.48s CPU      1.45s WALL (   18557 calls)
 
     PWSCF        :    29.67s CPU        32.99s WALL

 
   This run was terminated on:  10:24:27  12May2020            

=------------------------------------------------------------------------------=
   JOB DONE.
=------------------------------------------------------------------------------=
