
     Program PWSCF v.6.1 (svn rev. 13369) starts on 12May2020 at 10:30:56 

     This program is part of the open-source Quantum ESPRESSO suite
     for quantum simulation of materials; please cite
         "P. Giannozzi et al., J. Phys.:Condens. Matter 21 395502 (2009);
          URL http://www.quantum-espresso.org", 
     in publications or presentations arising from this work. More details at
     http://www.quantum-espresso.org/quote

     Parallel version (MPI), running on    96 processors
     K-points division:     npool     =       6
     R & G space division:  proc/nbgrp/npool/nimage =      16
     Reading input from scf.in
Warning: card &IONS ignored
Warning: card / ignored

     Current dimensions of program PWSCF are:
     Max number of different atomic species (ntypx) = 10
     Max number of k-points (npk) =  40000
     Max angular momentum in pseudopotentials (lmaxx) =  3

     Subspace diagonalization in iterative solution of the eigenvalue problem:
     a serial algorithm will be used

 
     Parallelization info
     --------------------
     sticks:   dense  smooth     PW     G-vecs:    dense   smooth      PW
     Min         252     252     67                12125    12125    1669
     Max         254     254     68                12129    12129    1672
     Sum        4049    4049   1085               194039   194039   26745
 


     bravais-lattice index     =            1
     lattice parameter (alat)  =      13.4862  a.u.
     unit-cell volume          =    2452.8358 (a.u.)^3
     number of atoms/cell      =           63
     number of atomic types    =            2
     number of electrons       =       254.00
     number of Kohn-Sham states=          152
     kinetic-energy cutoff     =      70.0000  Ry
     charge density cutoff     =     280.0000  Ry
     convergence threshold     =      1.0E-06
     mixing beta               =       0.5000
     number of iterations used =            8  plain     mixing
     Exchange-correlation      = PBE ( 1  4  3  4 0 0)

     celldm(1)=  13.486197  celldm(2)=   0.000000  celldm(3)=   0.000000
     celldm(4)=   0.000000  celldm(5)=   0.000000  celldm(6)=   0.000000

     crystal axes: (cart. coord. in units of alat)
               a(1) = (   1.000000   0.000000   0.000000 )  
               a(2) = (   0.000000   1.000000   0.000000 )  
               a(3) = (   0.000000   0.000000   1.000000 )  

     reciprocal axes: (cart. coord. in units 2 pi/alat)
               b(1) = (  1.000000  0.000000  0.000000 )  
               b(2) = (  0.000000  1.000000  0.000000 )  
               b(3) = (  0.000000  0.000000  1.000000 )  


     PseudoPot. # 1 for C  read from file:
     /home/tjsmart/Pseudo/C_ONCV_PBE-1.0.upf
     MD5 check sum: 72b63e32b2fd29504de26a4901699f60
     Pseudo is Norm-conserving, Zval =  4.0
     Generated using ONCVPSP code by D. R. Hamann
     Using radial grid of 1248 points,  4 beta functions with: 
                l(1) =   0
                l(2) =   0
                l(3) =   1
                l(4) =   1

     PseudoPot. # 2 for N  read from file:
     /home/tjsmart/Pseudo/N_ONCV_PBE-1.0.upf
     MD5 check sum: 09890da6b2972017450f7114a6086fad
     Pseudo is Norm-conserving, Zval =  5.0
     Generated using ONCVPSP code by D. R. Hamann
     Using radial grid of 1058 points,  4 beta functions with: 
                l(1) =   0
                l(2) =   0
                l(3) =   1
                l(4) =   1

     atomic species   valence    mass     pseudopotential
        C              4.00    12.01110     C ( 1.00)
        N              5.00    14.00670     N ( 1.00)

     Starting magnetic structure 
     atomic species   magnetization
        C            0.500
        N            0.500

      6 Sym. Ops. (no inversion) found


                                    s                        frac. trans.

      isym =  1     identity                                     

 cryst.   s( 1) = (     1          0          0      )
                  (     0          1          0      )
                  (     0          0          1      )

 cart.    s( 1) = (  1.0000000  0.0000000  0.0000000 )
                  (  0.0000000  1.0000000  0.0000000 )
                  (  0.0000000  0.0000000  1.0000000 )


      isym =  2     120 deg rotation - cart. axis [-1,-1,-1]     

 cryst.   s( 2) = (     0          0          1      )
                  (     1          0          0      )
                  (     0          1          0      )

 cart.    s( 2) = (  0.0000000  1.0000000  0.0000000 )
                  (  0.0000000  0.0000000  1.0000000 )
                  (  1.0000000  0.0000000  0.0000000 )


      isym =  3     120 deg rotation - cart. axis [1,1,1]        

 cryst.   s( 3) = (     0          1          0      )
                  (     0          0          1      )
                  (     1          0          0      )

 cart.    s( 3) = (  0.0000000  0.0000000  1.0000000 )
                  (  1.0000000  0.0000000  0.0000000 )
                  (  0.0000000  1.0000000  0.0000000 )


      isym =  4     inv. 180 deg rotation - cart. axis [1,-1,0]  

 cryst.   s( 4) = (     0          1          0      )
                  (     1          0          0      )
                  (     0          0          1      )

 cart.    s( 4) = (  0.0000000  1.0000000  0.0000000 )
                  (  1.0000000  0.0000000  0.0000000 )
                  (  0.0000000  0.0000000  1.0000000 )


      isym =  5     inv. 180 deg rotation - cart. axis [-1,0,1]  

 cryst.   s( 5) = (     0          0          1      )
                  (     0          1          0      )
                  (     1          0          0      )

 cart.    s( 5) = (  0.0000000  0.0000000  1.0000000 )
                  (  0.0000000  1.0000000  0.0000000 )
                  (  1.0000000  0.0000000  0.0000000 )


      isym =  6     inv. 180 deg rotation - cart. axis [0,1,-1]  

 cryst.   s( 6) = (     1          0          0      )
                  (     0          0          1      )
                  (     0          1          0      )

 cart.    s( 6) = (  1.0000000  0.0000000  0.0000000 )
                  (  0.0000000  0.0000000  1.0000000 )
                  (  0.0000000  1.0000000  0.0000000 )


     point group C_3v (3m)  
     there are  3 classes
     the character table:

       E     2C3   3s_v 
A_1    1.00  1.00  1.00
A_2    1.00  1.00 -1.00
E      2.00 -1.00  0.00

     the symmetry operations in each class and the name of the first element:

     E        1
          identity                                               
     2C3      2    3
          120 deg rotation - cart. axis [-1,-1,-1]               
     3s_v     4    5    6
          inv. 180 deg rotation - cart. axis [1,-1,0]            

   Cartesian axes

     site n.     atom                  positions (alat units)
         1           C   tau(   1) = (   0.3757735   0.3757735   0.8735905  )
         2           C   tau(   2) = (   0.5002349   0.0004014   0.0004014  )
         3           C   tau(   3) = (   0.4999909  -0.0003855   0.4999909  )
         4           C   tau(   4) = (   0.0004014   0.5002349   0.0004014  )
         5           C   tau(   5) = (  -0.0003855   0.4999909   0.4999909  )
         6           C   tau(   6) = (  -0.0001208  -0.0001208  -0.0001208  )
         7           C   tau(   7) = (   0.0004014   0.0004014   0.5002349  )
         8           C   tau(   8) = (   0.2504238   0.2504238  -0.0009453  )
         9           C   tau(   9) = (   0.2512930   0.2512930   0.4961438  )
        10           C   tau(  10) = (   0.2501858   0.7491203   0.0008665  )
        11           C   tau(  11) = (   0.2513169   0.7485044   0.5020459  )
        12           C   tau(  12) = (   0.7491203   0.2501858   0.0008665  )
        13           C   tau(  13) = (   0.7485044   0.2513169   0.5020459  )
        14           C   tau(  14) = (   0.7495283   0.7495283  -0.0007610  )
        15           C   tau(  15) = (   0.4999909   0.4999909  -0.0003855  )
        16           C   tau(  16) = (   0.7486360   0.7486360   0.4983796  )
        17           C   tau(  17) = (   0.5020459   0.2513169   0.7485044  )
        18           C   tau(  18) = (   0.5020459   0.7485044   0.2513169  )
        19           C   tau(  19) = (   0.4983796   0.7486360   0.7486360  )
        20           C   tau(  20) = (  -0.0009453   0.2504238   0.2504238  )
        21           C   tau(  21) = (   0.0008665   0.2501858   0.7491203  )
        22           C   tau(  22) = (   0.0008665   0.7491203   0.2501858  )
        23           C   tau(  23) = (  -0.0007610   0.7495283   0.7495283  )
        24           C   tau(  24) = (   0.2512930   0.4961438   0.2512930  )
        25           C   tau(  25) = (   0.2513169   0.5020459   0.7485044  )
        26           C   tau(  26) = (   0.2504238  -0.0009453   0.2504238  )
        27           C   tau(  27) = (   0.2501858   0.0008665   0.7491203  )
        28           C   tau(  28) = (   0.7485044   0.5020459   0.2513169  )
        29           C   tau(  29) = (   0.7486360   0.4983796   0.7486360  )
        30           C   tau(  30) = (   0.4961438   0.2512930   0.2512930  )
        31           C   tau(  31) = (   0.7491203   0.0008665   0.2501858  )
        32           C   tau(  32) = (   0.6242958   0.8737599   0.6242958  )
        33           C   tau(  33) = (   0.6360294   0.3631019   0.6360294  )
        34           C   tau(  34) = (   0.3757148   0.8762189   0.8762189  )
        35           C   tau(  35) = (   0.3757735   0.8735905   0.3757735  )
        36           C   tau(  36) = (   0.8762189   0.3757148   0.8762189  )
        37           C   tau(  37) = (   0.8735905   0.3757735   0.3757735  )
        38           C   tau(  38) = (   0.8745171   0.8745171   0.8745171  )
        39           C   tau(  39) = (   0.8762189   0.8762189   0.3757148  )
        40           C   tau(  40) = (   0.1253719   0.1253719   0.8744017  )
        41           C   tau(  41) = (   0.1244692   0.1244692   0.3748722  )
        42           C   tau(  42) = (   0.1237005   0.6243556   0.8761080  )
        43           C   tau(  43) = (   0.1266493   0.6233967   0.3763752  )
        44           C   tau(  44) = (   0.6243556   0.1237005   0.8761080  )
        45           C   tau(  45) = (   0.6233967   0.1266493   0.3763752  )
        46           C   tau(  46) = (   0.6243556   0.8761080   0.1237005  )
        47           C   tau(  47) = (   0.6242958   0.6242958   0.8737599  )
        48           C   tau(  48) = (   0.3748722   0.1244692   0.1244692  )
        49           C   tau(  49) = (   0.3763752   0.1266493   0.6233967  )
        50           C   tau(  50) = (   0.3763752   0.6233967   0.1266493  )
        51           C   tau(  51) = (   0.3631019   0.6360294   0.6360294  )
        52           C   tau(  52) = (   0.8744017   0.1253719   0.1253719  )
        53           C   tau(  53) = (   0.8761080   0.1237005   0.6243556  )
        54           C   tau(  54) = (   0.8761080   0.6243556   0.1237005  )
        55           C   tau(  55) = (   0.8737599   0.6242958   0.6242958  )
        56           C   tau(  56) = (   0.1244692   0.3748722   0.1244692  )
        57           C   tau(  57) = (   0.1266493   0.3763752   0.6233967  )
        58           C   tau(  58) = (   0.1253719   0.8744017   0.1253719  )
        59           C   tau(  59) = (   0.1237005   0.8761080   0.6243556  )
        60           C   tau(  60) = (   0.6233967   0.3763752   0.1266493  )
        61           C   tau(  61) = (   0.6360294   0.6360294   0.3631019  )
        62           C   tau(  62) = (   0.7495283  -0.0007610   0.7495283  )
        63           N   tau(  63) = (   0.3673819   0.3673819   0.3673819  )

   Crystallographic axes

     site n.     atom                  positions (cryst. coord.)
         1           C   tau(   1) = (  0.3757735  0.3757735  0.8735905  )
         2           C   tau(   2) = (  0.5002349  0.0004014  0.0004014  )
         3           C   tau(   3) = (  0.4999909 -0.0003855  0.4999909  )
         4           C   tau(   4) = (  0.0004014  0.5002349  0.0004014  )
         5           C   tau(   5) = ( -0.0003855  0.4999909  0.4999909  )
         6           C   tau(   6) = ( -0.0001208 -0.0001208 -0.0001208  )
         7           C   tau(   7) = (  0.0004014  0.0004014  0.5002349  )
         8           C   tau(   8) = (  0.2504238  0.2504238 -0.0009453  )
         9           C   tau(   9) = (  0.2512930  0.2512930  0.4961438  )
        10           C   tau(  10) = (  0.2501858  0.7491203  0.0008665  )
        11           C   tau(  11) = (  0.2513169  0.7485044  0.5020459  )
        12           C   tau(  12) = (  0.7491203  0.2501858  0.0008665  )
        13           C   tau(  13) = (  0.7485044  0.2513169  0.5020459  )
        14           C   tau(  14) = (  0.7495283  0.7495283 -0.0007610  )
        15           C   tau(  15) = (  0.4999909  0.4999909 -0.0003855  )
        16           C   tau(  16) = (  0.7486360  0.7486360  0.4983796  )
        17           C   tau(  17) = (  0.5020459  0.2513169  0.7485044  )
        18           C   tau(  18) = (  0.5020459  0.7485044  0.2513169  )
        19           C   tau(  19) = (  0.4983796  0.7486360  0.7486360  )
        20           C   tau(  20) = ( -0.0009453  0.2504238  0.2504238  )
        21           C   tau(  21) = (  0.0008665  0.2501858  0.7491203  )
        22           C   tau(  22) = (  0.0008665  0.7491203  0.2501858  )
        23           C   tau(  23) = ( -0.0007610  0.7495283  0.7495283  )
        24           C   tau(  24) = (  0.2512930  0.4961438  0.2512930  )
        25           C   tau(  25) = (  0.2513169  0.5020459  0.7485044  )
        26           C   tau(  26) = (  0.2504238 -0.0009453  0.2504238  )
        27           C   tau(  27) = (  0.2501858  0.0008665  0.7491203  )
        28           C   tau(  28) = (  0.7485044  0.5020459  0.2513169  )
        29           C   tau(  29) = (  0.7486360  0.4983796  0.7486360  )
        30           C   tau(  30) = (  0.4961438  0.2512930  0.2512930  )
        31           C   tau(  31) = (  0.7491203  0.0008665  0.2501858  )
        32           C   tau(  32) = (  0.6242958  0.8737599  0.6242958  )
        33           C   tau(  33) = (  0.6360294  0.3631019  0.6360294  )
        34           C   tau(  34) = (  0.3757148  0.8762189  0.8762189  )
        35           C   tau(  35) = (  0.3757735  0.8735905  0.3757735  )
        36           C   tau(  36) = (  0.8762189  0.3757148  0.8762189  )
        37           C   tau(  37) = (  0.8735905  0.3757735  0.3757735  )
        38           C   tau(  38) = (  0.8745171  0.8745171  0.8745171  )
        39           C   tau(  39) = (  0.8762189  0.8762189  0.3757148  )
        40           C   tau(  40) = (  0.1253719  0.1253719  0.8744017  )
        41           C   tau(  41) = (  0.1244692  0.1244692  0.3748722  )
        42           C   tau(  42) = (  0.1237005  0.6243556  0.8761080  )
        43           C   tau(  43) = (  0.1266493  0.6233967  0.3763752  )
        44           C   tau(  44) = (  0.6243556  0.1237005  0.8761080  )
        45           C   tau(  45) = (  0.6233967  0.1266493  0.3763752  )
        46           C   tau(  46) = (  0.6243556  0.8761080  0.1237005  )
        47           C   tau(  47) = (  0.6242958  0.6242958  0.8737599  )
        48           C   tau(  48) = (  0.3748722  0.1244692  0.1244692  )
        49           C   tau(  49) = (  0.3763752  0.1266493  0.6233967  )
        50           C   tau(  50) = (  0.3763752  0.6233967  0.1266493  )
        51           C   tau(  51) = (  0.3631019  0.6360294  0.6360294  )
        52           C   tau(  52) = (  0.8744017  0.1253719  0.1253719  )
        53           C   tau(  53) = (  0.8761080  0.1237005  0.6243556  )
        54           C   tau(  54) = (  0.8761080  0.6243556  0.1237005  )
        55           C   tau(  55) = (  0.8737599  0.6242958  0.6242958  )
        56           C   tau(  56) = (  0.1244692  0.3748722  0.1244692  )
        57           C   tau(  57) = (  0.1266493  0.3763752  0.6233967  )
        58           C   tau(  58) = (  0.1253719  0.8744017  0.1253719  )
        59           C   tau(  59) = (  0.1237005  0.8761080  0.6243556  )
        60           C   tau(  60) = (  0.6233967  0.3763752  0.1266493  )
        61           C   tau(  61) = (  0.6360294  0.6360294  0.3631019  )
        62           C   tau(  62) = (  0.7495283 -0.0007610  0.7495283  )
        63           N   tau(  63) = (  0.3673819  0.3673819  0.3673819  )

     number of k points=     6
                       cart. coord. in units 2pi/alat
        k(    1) = (   0.0000000   0.0000000   0.0000000), wk =   0.0370370
        k(    2) = (   0.0000000   0.0000000   0.3333333), wk =   0.2222222
        k(    3) = (   0.0000000   0.3333333   0.3333333), wk =   0.2222222
        k(    4) = (   0.3333333   0.3333333   0.3333333), wk =   0.0740741
        k(    5) = (  -0.3333333   0.0000000   0.3333333), wk =   0.2222222
        k(    6) = (   0.3333333  -0.3333333   0.3333333), wk =   0.2222222

                       cryst. coord.
        k(    1) = (   0.0000000   0.0000000   0.0000000), wk =   0.0370370
        k(    2) = (   0.0000000   0.0000000   0.3333333), wk =   0.2222222
        k(    3) = (   0.0000000   0.3333333   0.3333333), wk =   0.2222222
        k(    4) = (   0.3333333   0.3333333   0.3333333), wk =   0.0740741
        k(    5) = (  -0.3333333   0.0000000   0.3333333), wk =   0.2222222
        k(    6) = (   0.3333333  -0.3333333   0.3333333), wk =   0.2222222

     Dense  grid:   194039 G-vectors     FFT dimensions: (  72,  72,  72)

     Occupations read from input 

      Spin-up

        1.0000   1.0000   1.0000   1.0000   1.0000   1.0000   1.0000   1.0000
        1.0000   1.0000   1.0000   1.0000   1.0000   1.0000   1.0000   1.0000
        1.0000   1.0000   1.0000   1.0000   1.0000   1.0000   1.0000   1.0000
        1.0000   1.0000   1.0000   1.0000   1.0000   1.0000   1.0000   1.0000
        1.0000   1.0000   1.0000   1.0000   1.0000   1.0000   1.0000   1.0000
        1.0000   1.0000   1.0000   1.0000   1.0000   1.0000   1.0000   1.0000
        1.0000   1.0000   1.0000   1.0000   1.0000   1.0000   1.0000   1.0000
        1.0000   1.0000   1.0000   1.0000   1.0000   1.0000   1.0000   1.0000
        1.0000   1.0000   1.0000   1.0000   1.0000   1.0000   1.0000   1.0000
        1.0000   1.0000   1.0000   1.0000   1.0000   1.0000   1.0000   1.0000
        1.0000   1.0000   1.0000   1.0000   1.0000   1.0000   1.0000   1.0000
        1.0000   1.0000   1.0000   1.0000   1.0000   1.0000   1.0000   1.0000
        1.0000   1.0000   1.0000   1.0000   1.0000   1.0000   1.0000   1.0000
        1.0000   1.0000   1.0000   1.0000   1.0000   1.0000   1.0000   1.0000
        1.0000   1.0000   1.0000   1.0000   1.0000   1.0000   1.0000   1.0000
        1.0000   1.0000   1.0000   1.0000   1.0000   1.0000   1.0000   1.0000
        0.0000   0.0000   0.0000   0.0000   0.0000   0.0000   0.0000   0.0000
        0.0000   0.0000   0.0000   0.0000   0.0000   0.0000   0.0000   0.0000
        0.0000   0.0000   0.0000   0.0000   0.0000   0.0000   0.0000   0.0000

      Spin-down

        1.0000   1.0000   1.0000   1.0000   1.0000   1.0000   1.0000   1.0000
        1.0000   1.0000   1.0000   1.0000   1.0000   1.0000   1.0000   1.0000
        1.0000   1.0000   1.0000   1.0000   1.0000   1.0000   1.0000   1.0000
        1.0000   1.0000   1.0000   1.0000   1.0000   1.0000   1.0000   1.0000
        1.0000   1.0000   1.0000   1.0000   1.0000   1.0000   1.0000   1.0000
        1.0000   1.0000   1.0000   1.0000   1.0000   1.0000   1.0000   1.0000
        1.0000   1.0000   1.0000   1.0000   1.0000   1.0000   1.0000   1.0000
        1.0000   1.0000   1.0000   1.0000   1.0000   1.0000   1.0000   1.0000
        1.0000   1.0000   1.0000   1.0000   1.0000   1.0000   1.0000   1.0000
        1.0000   1.0000   1.0000   1.0000   1.0000   1.0000   1.0000   1.0000
        1.0000   1.0000   1.0000   1.0000   1.0000   1.0000   1.0000   1.0000
        1.0000   1.0000   1.0000   1.0000   1.0000   1.0000   1.0000   1.0000
        1.0000   1.0000   1.0000   1.0000   1.0000   1.0000   1.0000   1.0000
        1.0000   1.0000   1.0000   1.0000   1.0000   1.0000   1.0000   1.0000
        1.0000   1.0000   1.0000   1.0000   1.0000   1.0000   1.0000   1.0000
        1.0000   1.0000   1.0000   1.0000   1.0000   0.0000   1.0000   0.0000
        0.0000   0.0000   0.0000   0.0000   0.0000   0.0000   0.0000   0.0000
        0.0000   0.0000   0.0000   0.0000   0.0000   0.0000   0.0000   0.0000
        0.0000   0.0000   0.0000   0.0000   0.0000   0.0000   0.0000   0.0000

     Estimated max dynamical RAM per process >      60.23MB

     Estimated total allocated dynamical RAM >    5782.56MB
     Generating pointlists ...
     new r_m :   0.0856 (alat units)  1.1549 (a.u.) for type    1
     new r_m :   0.0861 (alat units)  1.1607 (a.u.) for type    2

     Initial potential from superposition of free atoms

     starting charge  252.99722, renormalised to  254.00000
     Starting wfc are  252 randomized atomic wfcs

     total cpu time spent up to now is        3.8 secs

     per-process dynamical memory:    59.5 Mb

     Self-consistent Calculation

     iteration #  1     ecut=    70.00 Ry     beta=0.50
     Davidson diagonalization with overlap
     ethr =  1.00E-02,  avg # of iterations =  3.0

     total cpu time spent up to now is        6.1 secs

     total energy              =    -722.45805339 Ry
     Harris-Foulkes estimate   =    -717.55997470 Ry
     estimated scf accuracy    <       6.66599881 Ry

     total magnetization       =     2.00 Bohr mag/cell
     absolute magnetization    =     3.67 Bohr mag/cell

     iteration #  2     ecut=    70.00 Ry     beta=0.50
     Davidson diagonalization with overlap
     ethr =  2.62E-03,  avg # of iterations =  2.0

     total cpu time spent up to now is        7.5 secs

     total energy              =    -724.29232300 Ry
     Harris-Foulkes estimate   =    -722.83341152 Ry
     estimated scf accuracy    <       1.44154973 Ry

     total magnetization       =     2.00 Bohr mag/cell
     absolute magnetization    =     2.50 Bohr mag/cell

     iteration #  3     ecut=    70.00 Ry     beta=0.50
     Davidson diagonalization with overlap
     ethr =  5.68E-04,  avg # of iterations =  7.1

     total cpu time spent up to now is       10.9 secs

     total energy              =    -724.54904527 Ry
     Harris-Foulkes estimate   =    -724.57923325 Ry
     estimated scf accuracy    <       0.63336042 Ry

     total magnetization       =     2.00 Bohr mag/cell
     absolute magnetization    =     2.14 Bohr mag/cell

     iteration #  4     ecut=    70.00 Ry     beta=0.50
     Davidson diagonalization with overlap
     ethr =  2.49E-04,  avg # of iterations =  6.3

     total cpu time spent up to now is       13.8 secs

     total energy              =    -724.68402870 Ry
     Harris-Foulkes estimate   =    -724.67295896 Ry
     estimated scf accuracy    <       0.02827370 Ry

     total magnetization       =     2.00 Bohr mag/cell
     absolute magnetization    =     2.14 Bohr mag/cell

     iteration #  5     ecut=    70.00 Ry     beta=0.50
     Davidson diagonalization with overlap
     ethr =  1.11E-05,  avg # of iterations =  9.7

     total cpu time spent up to now is       18.9 secs

     total energy              =    -724.69203096 Ry
     Harris-Foulkes estimate   =    -724.69150947 Ry
     estimated scf accuracy    <       0.00546689 Ry

     total magnetization       =     2.00 Bohr mag/cell
     absolute magnetization    =     2.16 Bohr mag/cell

     iteration #  6     ecut=    70.00 Ry     beta=0.50
     Davidson diagonalization with overlap
     ethr =  2.15E-06,  avg # of iterations =  8.5

     total cpu time spent up to now is       23.1 secs

     total energy              =    -724.69313519 Ry
     Harris-Foulkes estimate   =    -724.69319666 Ry
     estimated scf accuracy    <       0.00057737 Ry

     total magnetization       =     2.00 Bohr mag/cell
     absolute magnetization    =     2.17 Bohr mag/cell

     iteration #  7     ecut=    70.00 Ry     beta=0.50
     Davidson diagonalization with overlap
     ethr =  2.27E-07,  avg # of iterations =  3.6

     total cpu time spent up to now is       25.4 secs

     total energy              =    -724.69332486 Ry
     Harris-Foulkes estimate   =    -724.69330328 Ry
     estimated scf accuracy    <       0.00008876 Ry

     total magnetization       =     2.00 Bohr mag/cell
     absolute magnetization    =     2.18 Bohr mag/cell

     iteration #  8     ecut=    70.00 Ry     beta=0.50
     Davidson diagonalization with overlap
     ethr =  3.49E-08,  avg # of iterations =  3.1

     total cpu time spent up to now is       27.4 secs

     total energy              =    -724.69336851 Ry
     Harris-Foulkes estimate   =    -724.69335165 Ry
     estimated scf accuracy    <       0.00001673 Ry

     total magnetization       =     2.00 Bohr mag/cell
     absolute magnetization    =     2.19 Bohr mag/cell

     iteration #  9     ecut=    70.00 Ry     beta=0.50
     Davidson diagonalization with overlap
     ethr =  6.59E-09,  avg # of iterations =  3.8

     total cpu time spent up to now is       29.6 secs

     total energy              =    -724.69338130 Ry
     Harris-Foulkes estimate   =    -724.69337247 Ry
     estimated scf accuracy    <       0.00000483 Ry

     total magnetization       =     2.00 Bohr mag/cell
     absolute magnetization    =     2.20 Bohr mag/cell

     iteration # 10     ecut=    70.00 Ry     beta=0.50
     Davidson diagonalization with overlap
     ethr =  1.90E-09,  avg # of iterations =  4.6
 
     Magnetic moment per site:
     atom:    1    charge:    1.8321    magn:    0.0072    constr:    0.0000
     atom:    2    charge:    1.8524    magn:    0.0084    constr:    0.0000
     atom:    3    charge:    1.8404    magn:   -0.0014    constr:    0.0000
     atom:    4    charge:    1.8524    magn:    0.0084    constr:    0.0000
     atom:    5    charge:    1.8404    magn:   -0.0014    constr:    0.0000
     atom:    6    charge:    1.8298    magn:   -0.0000    constr:    0.0000
     atom:    7    charge:    1.8524    magn:    0.0084    constr:    0.0000
     atom:    8    charge:    1.8333    magn:   -0.0008    constr:    0.0000
     atom:    9    charge:    1.8087    magn:    0.0001    constr:    0.0000
     atom:   10    charge:    1.8280    magn:   -0.0014    constr:    0.0000
     atom:   11    charge:    1.8430    magn:   -0.0030    constr:    0.0000
     atom:   12    charge:    1.8280    magn:   -0.0014    constr:    0.0000
     atom:   13    charge:    1.8430    magn:   -0.0030    constr:    0.0000
     atom:   14    charge:    1.8323    magn:   -0.0016    constr:    0.0000
     atom:   15    charge:    1.8404    magn:   -0.0014    constr:    0.0000
     atom:   16    charge:    1.8390    magn:   -0.0001    constr:    0.0000
     atom:   17    charge:    1.8430    magn:   -0.0030    constr:    0.0000
     atom:   18    charge:    1.8430    magn:   -0.0030    constr:    0.0000
     atom:   19    charge:    1.8390    magn:   -0.0001    constr:    0.0000
     atom:   20    charge:    1.8333    magn:   -0.0008    constr:    0.0000
     atom:   21    charge:    1.8280    magn:   -0.0014    constr:    0.0000
     atom:   22    charge:    1.8280    magn:   -0.0014    constr:    0.0000
     atom:   23    charge:    1.8323    magn:   -0.0016    constr:    0.0000
     atom:   24    charge:    1.8087    magn:    0.0001    constr:    0.0000
     atom:   25    charge:    1.8430    magn:   -0.0030    constr:    0.0000
     atom:   26    charge:    1.8333    magn:   -0.0008    constr:    0.0000
     atom:   27    charge:    1.8280    magn:   -0.0014    constr:    0.0000
     atom:   28    charge:    1.8430    magn:   -0.0030    constr:    0.0000
     atom:   29    charge:    1.8390    magn:   -0.0001    constr:    0.0000
     atom:   30    charge:    1.8087    magn:    0.0001    constr:    0.0000
     atom:   31    charge:    1.8280    magn:   -0.0014    constr:    0.0000
     atom:   32    charge:    1.8332    magn:    0.0061    constr:    0.0000
     atom:   33    charge:    1.8656    magn:    0.2033    constr:    0.0000
     atom:   34    charge:    1.8302    magn:    0.0165    constr:    0.0000
     atom:   35    charge:    1.8321    magn:    0.0072    constr:    0.0000
     atom:   36    charge:    1.8302    magn:    0.0165    constr:    0.0000
     atom:   37    charge:    1.8321    magn:    0.0072    constr:    0.0000
     atom:   38    charge:    1.8365    magn:    0.0045    constr:    0.0000
     atom:   39    charge:    1.8302    magn:    0.0165    constr:    0.0000
     atom:   40    charge:    1.8360    magn:    0.0037    constr:    0.0000
     atom:   41    charge:    1.8399    magn:    0.0087    constr:    0.0000
     atom:   42    charge:    1.8360    magn:    0.0177    constr:    0.0000
     atom:   43    charge:    1.8305    magn:    0.0047    constr:    0.0000
     atom:   44    charge:    1.8360    magn:    0.0177    constr:    0.0000
     atom:   45    charge:    1.8305    magn:    0.0047    constr:    0.0000
     atom:   46    charge:    1.8360    magn:    0.0177    constr:    0.0000
     atom:   47    charge:    1.8332    magn:    0.0061    constr:    0.0000
     atom:   48    charge:    1.8399    magn:    0.0087    constr:    0.0000
     atom:   49    charge:    1.8305    magn:    0.0047    constr:    0.0000
     atom:   50    charge:    1.8305    magn:    0.0047    constr:    0.0000
     atom:   51    charge:    1.8656    magn:    0.2033    constr:    0.0000
     atom:   52    charge:    1.8360    magn:    0.0037    constr:    0.0000
     atom:   53    charge:    1.8360    magn:    0.0177    constr:    0.0000
     atom:   54    charge:    1.8360    magn:    0.0177    constr:    0.0000
     atom:   55    charge:    1.8332    magn:    0.0061    constr:    0.0000
     atom:   56    charge:    1.8399    magn:    0.0087    constr:    0.0000
     atom:   57    charge:    1.8305    magn:    0.0047    constr:    0.0000
     atom:   58    charge:    1.8360    magn:    0.0037    constr:    0.0000
     atom:   59    charge:    1.8360    magn:    0.0177    constr:    0.0000
     atom:   60    charge:    1.8305    magn:    0.0047    constr:    0.0000
     atom:   61    charge:    1.8656    magn:    0.2033    constr:    0.0000
     atom:   62    charge:    1.8323    magn:   -0.0016    constr:    0.0000
     atom:   63    charge:    2.9141    magn:    0.1238    constr:    0.0000

     total cpu time spent up to now is       32.4 secs

     End of self-consistent calculation

 ------ SPIN UP ------------


          k = 0.0000 0.0000 0.0000 ( 24207 PWs)   bands (ev):

    -8.6211  -7.1542  -6.2953  -6.2953  -6.1679  -6.1679  -5.9055  -5.0159
    -4.1544  -4.1544  -4.1350  -4.1350  -4.0358  -4.0358  -4.0121  -3.9681
    -3.8689  -3.8689  -3.3809  -2.9819  -2.6849  -2.6849  -2.1367  -0.4087
    -0.4087  -0.3649  -0.3307  -0.1871   0.1415   0.1415   0.2561   0.2561
     0.3454   0.5740   0.7894   0.7894   0.9592   0.9592   0.9642   1.0119
     1.0119   1.0484   1.3141   1.3141   3.0093   3.8017   3.8017   3.9993
     4.1865   4.1865   4.1927   4.2076   4.2333   4.2333   4.3930   4.3930
     4.4428   4.4428   4.5579   4.6181   4.6225   4.6225   4.6395   4.7185
     4.7185   4.8604   4.9204   4.9204   4.9886   5.1686   5.1686   5.2377
     5.3138   5.3138   5.3582   5.3938   5.3938   5.9825   5.9825   6.0186
     6.5801   6.5801   6.6855   6.8995   6.9731   6.9731   7.4502   8.2478
     8.2478   8.3547   8.4281   8.4281   8.5994   8.5994   8.7551   8.7581
     8.7715   8.7715   8.8376   8.8376   8.8601   9.2235   9.2275   9.2275
     9.6227   9.6227   9.8564   9.8622   9.8622   9.8693   9.8807   9.9203
     9.9203   9.9523   9.9532   9.9532  10.0608  10.0608  10.2682  10.2682
    10.2688  10.5556  12.1538  12.3802  12.3802  13.5759  14.9043  14.9043
    17.2144  17.3123  17.3123  17.4581  17.5181  17.5181  17.7925  17.8755
    17.8755  17.9785  17.9785  18.2990  18.8576  18.8576  18.9205  20.5082
    20.7347  20.7347  20.8026  20.8586  20.8586  20.9525  20.9526  20.9609

     occupation numbers 
     1.0000   1.0000   1.0000   1.0000   1.0000   1.0000   1.0000   1.0000
     1.0000   1.0000   1.0000   1.0000   1.0000   1.0000   1.0000   1.0000
     1.0000   1.0000   1.0000   1.0000   1.0000   1.0000   1.0000   1.0000
     1.0000   1.0000   1.0000   1.0000   1.0000   1.0000   1.0000   1.0000
     1.0000   1.0000   1.0000   1.0000   1.0000   1.0000   1.0000   1.0000
     1.0000   1.0000   1.0000   1.0000   1.0000   1.0000   1.0000   1.0000
     1.0000   1.0000   1.0000   1.0000   1.0000   1.0000   1.0000   1.0000
     1.0000   1.0000   1.0000   1.0000   1.0000   1.0000   1.0000   1.0000
     1.0000   1.0000   1.0000   1.0000   1.0000   1.0000   1.0000   1.0000
     1.0000   1.0000   1.0000   1.0000   1.0000   1.0000   1.0000   1.0000
     1.0000   1.0000   1.0000   1.0000   1.0000   1.0000   1.0000   1.0000
     1.0000   1.0000   1.0000   1.0000   1.0000   1.0000   1.0000   1.0000
     1.0000   1.0000   1.0000   1.0000   1.0000   1.0000   1.0000   1.0000
     1.0000   1.0000   1.0000   1.0000   1.0000   1.0000   1.0000   1.0000
     1.0000   1.0000   1.0000   1.0000   1.0000   1.0000   1.0000   1.0000
     1.0000   1.0000   1.0000   1.0000   1.0000   1.0000   1.0000   1.0000
     0.0000   0.0000   0.0000   0.0000   0.0000   0.0000   0.0000   0.0000
     0.0000   0.0000   0.0000   0.0000   0.0000   0.0000   0.0000   0.0000
     0.0000   0.0000   0.0000   0.0000   0.0000   0.0000   0.0000   0.0000

          k = 0.0000 0.0000 0.3333 ( 24280 PWs)   bands (ev):

    -8.4058  -7.6226  -6.7055  -6.0514  -5.9272  -5.8349  -5.5173  -5.3061
    -5.1737  -5.0098  -4.5384  -4.1490  -3.8331  -3.8144  -3.6959  -3.4474
    -3.2282  -3.1564  -2.9428  -2.6176  -2.5172  -2.3852  -2.3367  -1.8026
    -0.8802  -0.7085  -0.5827  -0.3685   0.1391   0.2261   0.3383   0.3951
     0.4671   0.5432   0.5575   0.6547   0.7271   0.7340   0.9730   1.4533
     1.9658   1.9987   2.1496   2.1961   2.3938   2.4648   2.4680   2.7373
     2.9362   2.9881   3.1487   3.1603   3.8566   3.9315   4.0418   4.0573
     4.2785   4.3339   4.4847   4.5317   5.0321   5.0750   5.1112   5.1916
     5.1918   5.5691   5.5948   5.6975   5.7400   6.0310   6.0810   6.1612
     6.1766   6.3067   6.3760   6.4544   6.4897   6.5762   6.6031   6.7377
     6.7485   6.8788   6.8932   6.9211   7.1276   7.1496   7.1742   7.2566
     7.3785   7.4589   7.6538   7.7598   7.8177   8.0467   8.1201   8.2661
     8.3029   8.4353   8.6234   8.6894   8.7567   9.0600   9.1575   9.3378
     9.3544   9.6116   9.6325   9.7009   9.7799   9.9057   9.9264   9.9326
     9.9517  10.0140  10.0831  10.1083  10.1774  10.2532  10.2698  10.3446
    10.3763  11.0285  11.6794  11.6816  11.9379  13.2780  14.5909  14.7560
    17.1576  17.2839  17.9303  18.2525  18.3307  18.4772  18.5044  18.5880
    18.8078  18.8278  18.9766  19.0597  19.1692  19.7872  19.8366  20.3939
    20.6380  20.6495  20.7726  20.7841  20.8198  20.8336  20.8914  20.9392

     occupation numbers 
     1.0000   1.0000   1.0000   1.0000   1.0000   1.0000   1.0000   1.0000
     1.0000   1.0000   1.0000   1.0000   1.0000   1.0000   1.0000   1.0000
     1.0000   1.0000   1.0000   1.0000   1.0000   1.0000   1.0000   1.0000
     1.0000   1.0000   1.0000   1.0000   1.0000   1.0000   1.0000   1.0000
     1.0000   1.0000   1.0000   1.0000   1.0000   1.0000   1.0000   1.0000
     1.0000   1.0000   1.0000   1.0000   1.0000   1.0000   1.0000   1.0000
     1.0000   1.0000   1.0000   1.0000   1.0000   1.0000   1.0000   1.0000
     1.0000   1.0000   1.0000   1.0000   1.0000   1.0000   1.0000   1.0000
     1.0000   1.0000   1.0000   1.0000   1.0000   1.0000   1.0000   1.0000
     1.0000   1.0000   1.0000   1.0000   1.0000   1.0000   1.0000   1.0000
     1.0000   1.0000   1.0000   1.0000   1.0000   1.0000   1.0000   1.0000
     1.0000   1.0000   1.0000   1.0000   1.0000   1.0000   1.0000   1.0000
     1.0000   1.0000   1.0000   1.0000   1.0000   1.0000   1.0000   1.0000
     1.0000   1.0000   1.0000   1.0000   1.0000   1.0000   1.0000   1.0000
     1.0000   1.0000   1.0000   1.0000   1.0000   1.0000   1.0000   1.0000
     1.0000   1.0000   1.0000   1.0000   1.0000   1.0000   1.0000   1.0000
     0.0000   0.0000   0.0000   0.0000   0.0000   0.0000   0.0000   0.0000
     0.0000   0.0000   0.0000   0.0000   0.0000   0.0000   0.0000   0.0000
     0.0000   0.0000   0.0000   0.0000   0.0000   0.0000   0.0000   0.0000

          k = 0.0000 0.3333 0.3333 ( 24236 PWs)   bands (ev):

    -8.2133  -7.4662  -7.2368  -6.6174  -6.0123  -5.6869  -5.3662  -5.0277
    -4.9936  -4.8638  -4.5181  -4.2659  -4.2338  -3.9475  -3.5726  -3.5277
    -2.8137  -2.3898  -2.3411  -2.3292  -2.2030  -2.1960  -2.0570  -1.9048
    -1.5005  -1.3264  -1.1097  -0.9262  -0.5763  -0.0571   0.0560   0.1187
     0.1631   0.4549   0.6709   1.1700   1.1807   1.3054   1.3662   1.3733
     1.4327   1.4554   1.9376   2.0534   2.1128   2.3826   2.7216   2.8136
     2.9464   3.4817   3.6391   3.6503   3.7638   3.8023   3.9569   4.0216
     4.0999   4.5302   4.6420   4.7915   5.0107   5.0219   5.1368   5.2933
     5.3255   5.5746   5.6179   5.6685   5.7308   5.9224   5.9969   6.0630
     6.1404   6.2246   6.2731   6.4773   6.5239   6.5845   6.6433   6.8343
     6.9108   6.9378   6.9964   7.0396   7.2207   7.2638   7.4761   7.6680
     7.9199   7.9227   8.0580   8.0607   8.1127   8.2175   8.2622   8.3049
     8.3342   8.4012   8.5248   8.6202   8.6767   8.7080   8.8363   8.8718
     9.0678   9.1671   9.2318   9.2987   9.4510   9.4670   9.5404   9.6326
     9.6967   9.7793   9.8971  10.0335  10.0514  10.1186  10.3774  10.6445
    10.9813  11.1867  11.5560  11.5636  12.1932  13.0709  14.5169  14.8342
    17.9992  18.1764  18.2140  18.2962  18.3393  18.7842  18.8553  18.9395
    19.1632  19.2041  19.4368  19.4715  19.6811  19.7808  19.9608  19.9827
    20.1762  20.4262  20.4659  20.4936  20.5571  20.5716  20.6108  20.6244

     occupation numbers 
     1.0000   1.0000   1.0000   1.0000   1.0000   1.0000   1.0000   1.0000
     1.0000   1.0000   1.0000   1.0000   1.0000   1.0000   1.0000   1.0000
     1.0000   1.0000   1.0000   1.0000   1.0000   1.0000   1.0000   1.0000
     1.0000   1.0000   1.0000   1.0000   1.0000   1.0000   1.0000   1.0000
     1.0000   1.0000   1.0000   1.0000   1.0000   1.0000   1.0000   1.0000
     1.0000   1.0000   1.0000   1.0000   1.0000   1.0000   1.0000   1.0000
     1.0000   1.0000   1.0000   1.0000   1.0000   1.0000   1.0000   1.0000
     1.0000   1.0000   1.0000   1.0000   1.0000   1.0000   1.0000   1.0000
     1.0000   1.0000   1.0000   1.0000   1.0000   1.0000   1.0000   1.0000
     1.0000   1.0000   1.0000   1.0000   1.0000   1.0000   1.0000   1.0000
     1.0000   1.0000   1.0000   1.0000   1.0000   1.0000   1.0000   1.0000
     1.0000   1.0000   1.0000   1.0000   1.0000   1.0000   1.0000   1.0000
     1.0000   1.0000   1.0000   1.0000   1.0000   1.0000   1.0000   1.0000
     1.0000   1.0000   1.0000   1.0000   1.0000   1.0000   1.0000   1.0000
     1.0000   1.0000   1.0000   1.0000   1.0000   1.0000   1.0000   1.0000
     1.0000   1.0000   1.0000   1.0000   1.0000   1.0000   1.0000   1.0000
     0.0000   0.0000   0.0000   0.0000   0.0000   0.0000   0.0000   0.0000
     0.0000   0.0000   0.0000   0.0000   0.0000   0.0000   0.0000   0.0000
     0.0000   0.0000   0.0000   0.0000   0.0000   0.0000   0.0000   0.0000

          k = 0.3333 0.3333 0.3333 ( 24303 PWs)   bands (ev):

    -8.0486  -7.2957  -6.9888  -6.9888  -6.3362  -6.2298  -6.2298  -5.4827
    -4.2844  -4.0422  -4.0422  -3.5782  -3.3896  -3.3896  -3.3518  -3.3518
    -3.3086  -2.9212  -2.6711  -2.6711  -1.9600  -1.9314  -1.9314  -1.5508
    -1.4648  -1.4648  -1.4007  -1.4007  -1.3440  -1.2281  -1.2281   0.0197
     0.8477   0.8477   0.9506   0.9661   0.9661   1.2672   1.8129   1.8129
     1.8702   1.8834   1.9886   1.9886   2.5532   2.5532   2.5896   2.7049
     2.7216   2.7216   3.1248   3.1248   3.5184   4.0419   4.2946   4.2946
     4.7943   4.8865   4.8865   4.9459   5.0810   5.0810   5.1309   5.2983
     5.2983   5.4016   5.4864   5.4864   5.5328   5.5328   5.6006   6.3329
     6.6587   6.6587   6.9320   6.9726   6.9838   6.9838   7.0731   7.0731
     7.1953   7.1953   7.2421   7.2460   7.2460   7.2610   7.3536   7.3536
     7.3634   7.4656   7.7270   7.7270   7.9105   7.9105   7.9615   7.9951
     8.1817   8.1817   8.2896   8.2896   8.3008   8.4327   8.4713   8.4713
     8.6730   8.6730   8.7541   9.0550   9.0826   9.5136   9.5136   9.7652
     9.7652  10.4771  10.4777  10.4777  10.5000  10.9288  10.9288  11.1197
    11.2718  11.2718  11.2847  11.6466  11.6466  12.9508  14.8134  14.8134
    18.0315  18.2253  18.2253  18.4412  18.6366  18.6366  19.1709  19.3659
    19.3659  19.5378  19.5378  19.5876  19.6079  19.6079  19.6414  19.7448
    19.7448  19.8662  19.9096  19.9096  19.9889  19.9889  20.0278  20.1407

     occupation numbers 
     1.0000   1.0000   1.0000   1.0000   1.0000   1.0000   1.0000   1.0000
     1.0000   1.0000   1.0000   1.0000   1.0000   1.0000   1.0000   1.0000
     1.0000   1.0000   1.0000   1.0000   1.0000   1.0000   1.0000   1.0000
     1.0000   1.0000   1.0000   1.0000   1.0000   1.0000   1.0000   1.0000
     1.0000   1.0000   1.0000   1.0000   1.0000   1.0000   1.0000   1.0000
     1.0000   1.0000   1.0000   1.0000   1.0000   1.0000   1.0000   1.0000
     1.0000   1.0000   1.0000   1.0000   1.0000   1.0000   1.0000   1.0000
     1.0000   1.0000   1.0000   1.0000   1.0000   1.0000   1.0000   1.0000
     1.0000   1.0000   1.0000   1.0000   1.0000   1.0000   1.0000   1.0000
     1.0000   1.0000   1.0000   1.0000   1.0000   1.0000   1.0000   1.0000
     1.0000   1.0000   1.0000   1.0000   1.0000   1.0000   1.0000   1.0000
     1.0000   1.0000   1.0000   1.0000   1.0000   1.0000   1.0000   1.0000
     1.0000   1.0000   1.0000   1.0000   1.0000   1.0000   1.0000   1.0000
     1.0000   1.0000   1.0000   1.0000   1.0000   1.0000   1.0000   1.0000
     1.0000   1.0000   1.0000   1.0000   1.0000   1.0000   1.0000   1.0000
     1.0000   1.0000   1.0000   1.0000   1.0000   1.0000   1.0000   1.0000
     0.0000   0.0000   0.0000   0.0000   0.0000   0.0000   0.0000   0.0000
     0.0000   0.0000   0.0000   0.0000   0.0000   0.0000   0.0000   0.0000
     0.0000   0.0000   0.0000   0.0000   0.0000   0.0000   0.0000   0.0000

          k =-0.3333 0.0000 0.3333 ( 24236 PWs)   bands (ev):

    -8.1994  -7.5745  -7.1116  -6.6104  -6.0556  -5.6916  -5.4014  -5.0491
    -4.9414  -4.7727  -4.5426  -4.3142  -4.2305  -4.0654  -3.6147  -3.3406
    -2.8146  -2.4331  -2.3758  -2.2953  -2.2082  -2.1570  -2.1170  -1.6766
    -1.6449  -1.3277  -1.1274  -1.0005  -0.6177  -0.0262   0.0631   0.1065
     0.2583   0.4725   0.8683   1.0276   1.1873   1.2106   1.2299   1.3836
     1.4740   1.5777   1.8349   1.8773   2.1218   2.5658   2.6509   2.8568
     2.9462   3.4680   3.6308   3.6955   3.7478   3.8958   4.0061   4.1177
     4.1653   4.3705   4.5688   4.7821   4.9509   4.9907   5.1717   5.2358
     5.3880   5.5399   5.6260   5.6677   5.7769   5.9906   6.0704   6.1154
     6.1635   6.2195   6.2608   6.4053   6.4520   6.6106   6.6246   6.8001
     6.8809   6.9509   7.0002   7.0864   7.2044   7.3658   7.4770   7.6414
     7.8194   7.8725   7.9401   8.0626   8.1677   8.2105   8.2523   8.2670
     8.3523   8.4266   8.5204   8.5769   8.7155   8.7450   8.8861   8.9643
     9.0597   9.1239   9.2160   9.3097   9.4238   9.4808   9.5001   9.6491
     9.7127   9.7409   9.9290  10.0337  10.0644  10.1064  10.4770  10.7288
    10.8822  11.1247  11.4409  11.5592  12.2117  13.3558  14.4306  14.7284
    17.9815  18.1899  18.2424  18.2969  18.3591  18.7705  18.9205  19.0926
    19.1040  19.2616  19.3295  19.4659  19.6931  19.8250  19.8526  19.9961
    20.2061  20.3235  20.3880  20.4943  20.5425  20.5640  20.6301  20.6768

     occupation numbers 
     1.0000   1.0000   1.0000   1.0000   1.0000   1.0000   1.0000   1.0000
     1.0000   1.0000   1.0000   1.0000   1.0000   1.0000   1.0000   1.0000
     1.0000   1.0000   1.0000   1.0000   1.0000   1.0000   1.0000   1.0000
     1.0000   1.0000   1.0000   1.0000   1.0000   1.0000   1.0000   1.0000
     1.0000   1.0000   1.0000   1.0000   1.0000   1.0000   1.0000   1.0000
     1.0000   1.0000   1.0000   1.0000   1.0000   1.0000   1.0000   1.0000
     1.0000   1.0000   1.0000   1.0000   1.0000   1.0000   1.0000   1.0000
     1.0000   1.0000   1.0000   1.0000   1.0000   1.0000   1.0000   1.0000
     1.0000   1.0000   1.0000   1.0000   1.0000   1.0000   1.0000   1.0000
     1.0000   1.0000   1.0000   1.0000   1.0000   1.0000   1.0000   1.0000
     1.0000   1.0000   1.0000   1.0000   1.0000   1.0000   1.0000   1.0000
     1.0000   1.0000   1.0000   1.0000   1.0000   1.0000   1.0000   1.0000
     1.0000   1.0000   1.0000   1.0000   1.0000   1.0000   1.0000   1.0000
     1.0000   1.0000   1.0000   1.0000   1.0000   1.0000   1.0000   1.0000
     1.0000   1.0000   1.0000   1.0000   1.0000   1.0000   1.0000   1.0000
     1.0000   1.0000   1.0000   1.0000   1.0000   1.0000   1.0000   1.0000
     0.0000   0.0000   0.0000   0.0000   0.0000   0.0000   0.0000   0.0000
     0.0000   0.0000   0.0000   0.0000   0.0000   0.0000   0.0000   0.0000
     0.0000   0.0000   0.0000   0.0000   0.0000   0.0000   0.0000   0.0000

          k = 0.3333-0.3333 0.3333 ( 24303 PWs)   bands (ev):

    -8.0246  -7.4267  -6.9893  -6.8338  -6.4998  -6.2285  -6.0010  -5.5255
    -4.5820  -4.0432  -3.9484  -3.7348  -3.4401  -3.3745  -3.3321  -3.2168
    -3.0837  -2.8963  -2.6979  -2.4440  -2.1102  -1.9063  -1.8635  -1.7332
    -1.4945  -1.4860  -1.4302  -1.3647  -1.3555  -1.2517  -1.1766  -0.1153
     0.7219   0.8631   0.9355   0.9740   1.0537   1.4034   1.7051   1.7560
     1.8546   1.9315   2.0336   2.2177   2.5587   2.5870   2.6798   2.7075
     2.7175   2.7701   2.8945   3.1621   3.4751   3.9598   4.2149   4.3025
     4.7694   4.7743   4.8238   4.9976   5.0108   5.0524   5.1705   5.2405
     5.2595   5.4142   5.4285   5.5109   5.6557   5.7734   5.8173   6.4216
     6.6179   6.7106   6.9038   6.9179   6.9604   7.0294   7.0727   7.0803
     7.1517   7.1557   7.2228   7.2483   7.2665   7.3137   7.3441   7.3531
     7.3751   7.4469   7.7206   7.7216   7.8082   7.9099   7.9431   7.9473
     8.1300   8.1548   8.2574   8.2790   8.3545   8.3879   8.4059   8.4913
     8.6870   8.7226   8.9212   8.9961   9.0733   9.5112   9.5771   9.5895
     9.8478  10.3830  10.4237  10.5160  10.5374  10.8612  10.9173  11.1304
    11.2232  11.2475  11.2882  11.7175  11.7185  13.3362  14.5039  14.8093
    18.0392  18.2593  18.3191  18.5075  18.6428  18.7074  19.1297  19.3572
    19.4362  19.4859  19.5160  19.5500  19.5944  19.6224  19.6423  19.7104
    19.7458  19.7821  19.8974  19.8975  19.9761  19.9846  20.0377  20.1438

     occupation numbers 
     1.0000   1.0000   1.0000   1.0000   1.0000   1.0000   1.0000   1.0000
     1.0000   1.0000   1.0000   1.0000   1.0000   1.0000   1.0000   1.0000
     1.0000   1.0000   1.0000   1.0000   1.0000   1.0000   1.0000   1.0000
     1.0000   1.0000   1.0000   1.0000   1.0000   1.0000   1.0000   1.0000
     1.0000   1.0000   1.0000   1.0000   1.0000   1.0000   1.0000   1.0000
     1.0000   1.0000   1.0000   1.0000   1.0000   1.0000   1.0000   1.0000
     1.0000   1.0000   1.0000   1.0000   1.0000   1.0000   1.0000   1.0000
     1.0000   1.0000   1.0000   1.0000   1.0000   1.0000   1.0000   1.0000
     1.0000   1.0000   1.0000   1.0000   1.0000   1.0000   1.0000   1.0000
     1.0000   1.0000   1.0000   1.0000   1.0000   1.0000   1.0000   1.0000
     1.0000   1.0000   1.0000   1.0000   1.0000   1.0000   1.0000   1.0000
     1.0000   1.0000   1.0000   1.0000   1.0000   1.0000   1.0000   1.0000
     1.0000   1.0000   1.0000   1.0000   1.0000   1.0000   1.0000   1.0000
     1.0000   1.0000   1.0000   1.0000   1.0000   1.0000   1.0000   1.0000
     1.0000   1.0000   1.0000   1.0000   1.0000   1.0000   1.0000   1.0000
     1.0000   1.0000   1.0000   1.0000   1.0000   1.0000   1.0000   1.0000
     0.0000   0.0000   0.0000   0.0000   0.0000   0.0000   0.0000   0.0000
     0.0000   0.0000   0.0000   0.0000   0.0000   0.0000   0.0000   0.0000
     0.0000   0.0000   0.0000   0.0000   0.0000   0.0000   0.0000   0.0000

 ------ SPIN DOWN ----------


          k = 0.0000 0.0000 0.0000 ( 24207 PWs)   bands (ev):

    -8.5835  -7.0791  -6.2770  -6.2770  -6.1325  -6.1325  -5.8684  -4.9702
    -4.1352  -4.1352  -4.1186  -4.1186  -3.9917  -3.9860  -3.9860  -3.9525
    -3.8297  -3.8297  -3.3382  -2.9539  -2.6380  -2.6380  -2.0130  -0.3910
    -0.3910  -0.3449  -0.3017  -0.1108   0.1596   0.1596   0.2887   0.2887
     0.3663   0.6118   0.8037   0.8037   0.9845   0.9845   0.9930   1.0280
     1.0280   1.0607   1.4554   1.4554   3.1215   3.8365   3.8365   4.0326
     4.2118   4.2199   4.2199   4.2468   4.2499   4.2499   4.4245   4.4245
     4.4738   4.4738   4.5758   4.6405   4.6405   4.6464   4.6512   4.7548
     4.7548   4.8805   4.9474   4.9474   5.0762   5.2024   5.2024   5.2697
     5.3252   5.3252   5.3674   5.4427   5.4427   6.0355   6.0355   6.0689
     6.6089   6.6089   6.7118   6.9746   7.0519   7.0519   7.6219   8.2870
     8.2870   8.3956   8.4587   8.4587   8.6328   8.6328   8.7764   8.7891
     8.7891   8.8251   8.8770   8.8786   8.8786   9.2585   9.2585   9.2587
     9.6533   9.6533   9.8660   9.8811   9.8811   9.8827   9.9110   9.9396
     9.9396   9.9694   9.9781   9.9781  10.0935  10.0935  10.3153  10.3187
    10.3187  11.0432  12.4882  12.4949  12.4949  14.2724  15.9986  15.9986
    17.2588  17.3307  17.3307  17.4820  17.5654  17.5654  17.8278  17.8968
    17.8968  18.0135  18.0135  18.4133  18.9337  18.9337  18.9695  20.5774
    20.7500  20.7500  20.8141  20.8828  20.8828  20.9745  20.9746  20.9789

     occupation numbers 
     1.0000   1.0000   1.0000   1.0000   1.0000   1.0000   1.0000   1.0000
     1.0000   1.0000   1.0000   1.0000   1.0000   1.0000   1.0000   1.0000
     1.0000   1.0000   1.0000   1.0000   1.0000   1.0000   1.0000   1.0000
     1.0000   1.0000   1.0000   1.0000   1.0000   1.0000   1.0000   1.0000
     1.0000   1.0000   1.0000   1.0000   1.0000   1.0000   1.0000   1.0000
     1.0000   1.0000   1.0000   1.0000   1.0000   1.0000   1.0000   1.0000
     1.0000   1.0000   1.0000   1.0000   1.0000   1.0000   1.0000   1.0000
     1.0000   1.0000   1.0000   1.0000   1.0000   1.0000   1.0000   1.0000
     1.0000   1.0000   1.0000   1.0000   1.0000   1.0000   1.0000   1.0000
     1.0000   1.0000   1.0000   1.0000   1.0000   1.0000   1.0000   1.0000
     1.0000   1.0000   1.0000   1.0000   1.0000   1.0000   1.0000   1.0000
     1.0000   1.0000   1.0000   1.0000   1.0000   1.0000   1.0000   1.0000
     1.0000   1.0000   1.0000   1.0000   1.0000   1.0000   1.0000   1.0000
     1.0000   1.0000   1.0000   1.0000   1.0000   1.0000   1.0000   1.0000
     1.0000   1.0000   1.0000   1.0000   1.0000   1.0000   1.0000   1.0000
     1.0000   1.0000   1.0000   1.0000   1.0000   0.0000   1.0000   0.0000
     0.0000   0.0000   0.0000   0.0000   0.0000   0.0000   0.0000   0.0000
     0.0000   0.0000   0.0000   0.0000   0.0000   0.0000   0.0000   0.0000
     0.0000   0.0000   0.0000   0.0000   0.0000   0.0000   0.0000   0.0000

          k = 0.0000 0.0000 0.3333 ( 24280 PWs)   bands (ev):

    -8.3655  -7.5813  -6.6394  -6.0332  -5.8944  -5.8089  -5.4943  -5.2874
    -5.1312  -4.9607  -4.5035  -4.1219  -3.7947  -3.7890  -3.6682  -3.4202
    -3.1880  -3.1138  -2.9038  -2.5896  -2.4976  -2.3424  -2.2903  -1.7217
    -0.8283  -0.6883  -0.5470  -0.3108   0.1796   0.2438   0.3620   0.4159
     0.4937   0.5770   0.5820   0.6806   0.7536   0.7705   1.0557   1.5120
     2.0016   2.0200   2.1874   2.2273   2.4382   2.5040   2.5043   2.7657
     2.9723   3.0094   3.2194   3.2432   3.8781   3.9688   4.0663   4.0763
     4.2988   4.3837   4.5247   4.5731   5.0704   5.1375   5.1560   5.2194
     5.2284   5.6060   5.6194   5.7343   5.7815   6.0655   6.1074   6.2048
     6.2060   6.3262   6.4058   6.4759   6.5316   6.6267   6.6377   6.7645
     6.7778   6.9154   6.9232   6.9624   7.1663   7.1684   7.2069   7.2915
     7.4264   7.5042   7.7397   7.8009   7.8692   8.0696   8.1514   8.3045
     8.3249   8.4584   8.6847   8.7481   8.7919   9.1199   9.2386   9.3835
     9.3937   9.6504   9.6618   9.7172   9.8159   9.9181   9.9529   9.9566
     9.9972  10.0446  10.1262  10.1413  10.2092  10.2955  10.3071  10.4221
    10.4263  11.3041  11.7431  11.8015  12.1241  14.1560  15.6967  15.8953
    17.1959  17.3165  17.9579  18.2863  18.3486  18.4998  18.5278  18.6301
    18.8457  18.8473  19.0189  19.1045  19.2568  19.8424  19.8818  20.4494
    20.6569  20.6863  20.7910  20.8001  20.8336  20.8613  20.9203  20.9603

     occupation numbers 
     1.0000   1.0000   1.0000   1.0000   1.0000   1.0000   1.0000   1.0000
     1.0000   1.0000   1.0000   1.0000   1.0000   1.0000   1.0000   1.0000
     1.0000   1.0000   1.0000   1.0000   1.0000   1.0000   1.0000   1.0000
     1.0000   1.0000   1.0000   1.0000   1.0000   1.0000   1.0000   1.0000
     1.0000   1.0000   1.0000   1.0000   1.0000   1.0000   1.0000   1.0000
     1.0000   1.0000   1.0000   1.0000   1.0000   1.0000   1.0000   1.0000
     1.0000   1.0000   1.0000   1.0000   1.0000   1.0000   1.0000   1.0000
     1.0000   1.0000   1.0000   1.0000   1.0000   1.0000   1.0000   1.0000
     1.0000   1.0000   1.0000   1.0000   1.0000   1.0000   1.0000   1.0000
     1.0000   1.0000   1.0000   1.0000   1.0000   1.0000   1.0000   1.0000
     1.0000   1.0000   1.0000   1.0000   1.0000   1.0000   1.0000   1.0000
     1.0000   1.0000   1.0000   1.0000   1.0000   1.0000   1.0000   1.0000
     1.0000   1.0000   1.0000   1.0000   1.0000   1.0000   1.0000   1.0000
     1.0000   1.0000   1.0000   1.0000   1.0000   1.0000   1.0000   1.0000
     1.0000   1.0000   1.0000   1.0000   1.0000   1.0000   1.0000   1.0000
     1.0000   1.0000   1.0000   1.0000   1.0000   0.0000   1.0000   0.0000
     0.0000   0.0000   0.0000   0.0000   0.0000   0.0000   0.0000   0.0000
     0.0000   0.0000   0.0000   0.0000   0.0000   0.0000   0.0000   0.0000
     0.0000   0.0000   0.0000   0.0000   0.0000   0.0000   0.0000   0.0000

          k = 0.0000 0.3333 0.3333 ( 24236 PWs)   bands (ev):

    -8.1683  -7.4198  -7.2097  -6.5766  -5.9729  -5.6575  -5.3290  -4.9909
    -4.9748  -4.8389  -4.4738  -4.2395  -4.2042  -3.9006  -3.5254  -3.4985
    -2.7748  -2.3687  -2.3122  -2.3060  -2.1672  -2.1653  -2.0113  -1.8630
    -1.4664  -1.2979  -1.0636  -0.8790  -0.4961  -0.0110   0.0752   0.1408
     0.2001   0.4980   0.7148   1.1947   1.2020   1.3255   1.3994   1.4095
     1.4687   1.4976   1.9650   2.1051   2.1767   2.4419   2.7448   2.8597
     2.9921   3.5386   3.6661   3.6737   3.7993   3.8240   3.9998   4.0463
     4.1499   4.5962   4.6714   4.8448   5.0437   5.0454   5.1696   5.3235
     5.3686   5.6140   5.6449   5.7215   5.7714   5.9506   6.0358   6.0995
     6.1531   6.2585   6.3045   6.5126   6.5449   6.6163   6.6784   6.8698
     6.9315   6.9631   7.0565   7.0686   7.2604   7.3059   7.5322   7.7228
     7.9571   7.9967   8.0833   8.0935   8.1362   8.2474   8.2933   8.3427
     8.3719   8.4248   8.5651   8.6487   8.7294   8.7333   8.8860   8.9060
     9.0928   9.2180   9.2614   9.3418   9.4906   9.5029   9.6021   9.6577
     9.7432   9.8217   9.9312  10.0775  10.0891  10.1500  10.4498  10.7787
    11.0794  11.2500  11.5829  11.8499  12.2623  14.0336  15.6402  15.9383
    18.0478  18.2042  18.2536  18.3189  18.3718  18.8102  18.8769  18.9728
    19.1995  19.2358  19.4706  19.4985  19.7089  19.8225  19.9909  20.0234
    20.2077  20.4522  20.4875  20.5183  20.5833  20.6019  20.6287  20.6537

     occupation numbers 
     1.0000   1.0000   1.0000   1.0000   1.0000   1.0000   1.0000   1.0000
     1.0000   1.0000   1.0000   1.0000   1.0000   1.0000   1.0000   1.0000
     1.0000   1.0000   1.0000   1.0000   1.0000   1.0000   1.0000   1.0000
     1.0000   1.0000   1.0000   1.0000   1.0000   1.0000   1.0000   1.0000
     1.0000   1.0000   1.0000   1.0000   1.0000   1.0000   1.0000   1.0000
     1.0000   1.0000   1.0000   1.0000   1.0000   1.0000   1.0000   1.0000
     1.0000   1.0000   1.0000   1.0000   1.0000   1.0000   1.0000   1.0000
     1.0000   1.0000   1.0000   1.0000   1.0000   1.0000   1.0000   1.0000
     1.0000   1.0000   1.0000   1.0000   1.0000   1.0000   1.0000   1.0000
     1.0000   1.0000   1.0000   1.0000   1.0000   1.0000   1.0000   1.0000
     1.0000   1.0000   1.0000   1.0000   1.0000   1.0000   1.0000   1.0000
     1.0000   1.0000   1.0000   1.0000   1.0000   1.0000   1.0000   1.0000
     1.0000   1.0000   1.0000   1.0000   1.0000   1.0000   1.0000   1.0000
     1.0000   1.0000   1.0000   1.0000   1.0000   1.0000   1.0000   1.0000
     1.0000   1.0000   1.0000   1.0000   1.0000   1.0000   1.0000   1.0000
     1.0000   1.0000   1.0000   1.0000   1.0000   0.0000   1.0000   0.0000
     0.0000   0.0000   0.0000   0.0000   0.0000   0.0000   0.0000   0.0000
     0.0000   0.0000   0.0000   0.0000   0.0000   0.0000   0.0000   0.0000
     0.0000   0.0000   0.0000   0.0000   0.0000   0.0000   0.0000   0.0000

          k = 0.3333 0.3333 0.3333 ( 24303 PWs)   bands (ev):

    -7.9966  -7.2497  -6.9626  -6.9626  -6.3004  -6.2003  -6.2003  -5.4326
    -4.2134  -4.0170  -4.0170  -3.5378  -3.3629  -3.3629  -3.3205  -3.3205
    -3.2885  -2.8970  -2.6267  -2.6267  -1.9350  -1.9109  -1.9109  -1.5285
    -1.4459  -1.4459  -1.3759  -1.3759  -1.3220  -1.1379  -1.1379   0.1469
     0.8714   0.8714   0.9932   0.9932   1.0170   1.3033   1.8392   1.8392
     1.8847   1.9348   2.0226   2.0226   2.5787   2.5787   2.6184   2.7223
     2.7496   2.7496   3.2105   3.2105   3.5559   4.1174   4.3221   4.3221
     4.8564   4.9265   4.9265   4.9627   5.1037   5.1037   5.1846   5.3295
     5.3295   5.4277   5.5130   5.5130   5.5696   5.5696   5.6541   6.4263
     6.7078   6.7078   6.9449   7.0091   7.0091   7.0143   7.0970   7.0970
     7.2176   7.2176   7.2555   7.2704   7.2704   7.2877   7.3849   7.3849
     7.3886   7.5242   7.7677   7.7677   7.9368   7.9368   7.9835   8.0158
     8.2139   8.2139   8.3152   8.3152   8.3210   8.4474   8.5208   8.5208
     8.7077   8.7077   8.8543   9.0931   9.1583   9.5650   9.5650   9.8432
     9.8432  10.5033  10.5033  10.5229  10.6202  10.9823  10.9823  11.2983
    11.2983  11.3082  11.5733  11.6866  11.6866  13.8766  15.9511  15.9511
    18.0930  18.2495  18.2495  18.4671  18.6670  18.6670  19.2046  19.3808
    19.3808  19.5604  19.5604  19.6016  19.6319  19.6319  19.6617  19.7624
    19.7624  19.8913  19.9384  19.9384  20.0273  20.0273  20.0420  20.1724

     occupation numbers 
     1.0000   1.0000   1.0000   1.0000   1.0000   1.0000   1.0000   1.0000
     1.0000   1.0000   1.0000   1.0000   1.0000   1.0000   1.0000   1.0000
     1.0000   1.0000   1.0000   1.0000   1.0000   1.0000   1.0000   1.0000
     1.0000   1.0000   1.0000   1.0000   1.0000   1.0000   1.0000   1.0000
     1.0000   1.0000   1.0000   1.0000   1.0000   1.0000   1.0000   1.0000
     1.0000   1.0000   1.0000   1.0000   1.0000   1.0000   1.0000   1.0000
     1.0000   1.0000   1.0000   1.0000   1.0000   1.0000   1.0000   1.0000
     1.0000   1.0000   1.0000   1.0000   1.0000   1.0000   1.0000   1.0000
     1.0000   1.0000   1.0000   1.0000   1.0000   1.0000   1.0000   1.0000
     1.0000   1.0000   1.0000   1.0000   1.0000   1.0000   1.0000   1.0000
     1.0000   1.0000   1.0000   1.0000   1.0000   1.0000   1.0000   1.0000
     1.0000   1.0000   1.0000   1.0000   1.0000   1.0000   1.0000   1.0000
     1.0000   1.0000   1.0000   1.0000   1.0000   1.0000   1.0000   1.0000
     1.0000   1.0000   1.0000   1.0000   1.0000   1.0000   1.0000   1.0000
     1.0000   1.0000   1.0000   1.0000   1.0000   1.0000   1.0000   1.0000
     1.0000   1.0000   1.0000   1.0000   1.0000   0.0000   1.0000   0.0000
     0.0000   0.0000   0.0000   0.0000   0.0000   0.0000   0.0000   0.0000
     0.0000   0.0000   0.0000   0.0000   0.0000   0.0000   0.0000   0.0000
     0.0000   0.0000   0.0000   0.0000   0.0000   0.0000   0.0000   0.0000

          k =-0.3333 0.0000 0.3333 ( 24236 PWs)   bands (ev):

    -8.1537  -7.5344  -7.0811  -6.5641  -6.0195  -5.6656  -5.3611  -5.0323
    -4.8996  -4.7372  -4.5187  -4.2775  -4.1946  -4.0335  -3.5732  -3.3023
    -2.7699  -2.4089  -2.3583  -2.2731  -2.1678  -2.1257  -2.0830  -1.6556
    -1.5633  -1.2949  -1.0950  -0.9452  -0.5527  -0.0085   0.0887   0.1406
     0.3031   0.5201   0.9352   1.0566   1.2080   1.2308   1.2631   1.4032
     1.5045   1.6222   1.8872   1.9035   2.1484   2.6294   2.7033   2.9011
     2.9939   3.5135   3.6671   3.7159   3.7771   3.9228   4.0471   4.1481
     4.2291   4.4244   4.6044   4.8347   4.9720   5.0217   5.2039   5.2706
     5.4290   5.5806   5.6513   5.7121   5.8228   6.0224   6.0858   6.1484
     6.1932   6.2502   6.2989   6.4381   6.4858   6.6347   6.6558   6.8197
     6.9046   6.9762   7.0387   7.1353   7.2578   7.4207   7.5346   7.6800
     7.9088   7.9223   7.9675   8.0781   8.1959   8.2325   8.2772   8.3013
     8.3862   8.4639   8.5745   8.6049   8.7606   8.7743   8.9187   8.9903
     9.1040   9.1577   9.2609   9.3505   9.4697   9.5247   9.5278   9.6903
     9.7496   9.7982   9.9583  10.0643  10.0992  10.1474  10.5234  10.9410
    10.9742  11.1988  11.5041  11.7269  12.3632  14.2629  15.5364  15.8482
    18.0176  18.2165  18.2711  18.3256  18.3918  18.7931  18.9458  19.1219
    19.1326  19.2900  19.3943  19.4989  19.7234  19.8730  19.8812  20.0411
    20.2383  20.3556  20.4185  20.5133  20.5631  20.5892  20.6530  20.7027

     occupation numbers 
     1.0000   1.0000   1.0000   1.0000   1.0000   1.0000   1.0000   1.0000
     1.0000   1.0000   1.0000   1.0000   1.0000   1.0000   1.0000   1.0000
     1.0000   1.0000   1.0000   1.0000   1.0000   1.0000   1.0000   1.0000
     1.0000   1.0000   1.0000   1.0000   1.0000   1.0000   1.0000   1.0000
     1.0000   1.0000   1.0000   1.0000   1.0000   1.0000   1.0000   1.0000
     1.0000   1.0000   1.0000   1.0000   1.0000   1.0000   1.0000   1.0000
     1.0000   1.0000   1.0000   1.0000   1.0000   1.0000   1.0000   1.0000
     1.0000   1.0000   1.0000   1.0000   1.0000   1.0000   1.0000   1.0000
     1.0000   1.0000   1.0000   1.0000   1.0000   1.0000   1.0000   1.0000
     1.0000   1.0000   1.0000   1.0000   1.0000   1.0000   1.0000   1.0000
     1.0000   1.0000   1.0000   1.0000   1.0000   1.0000   1.0000   1.0000
     1.0000   1.0000   1.0000   1.0000   1.0000   1.0000   1.0000   1.0000
     1.0000   1.0000   1.0000   1.0000   1.0000   1.0000   1.0000   1.0000
     1.0000   1.0000   1.0000   1.0000   1.0000   1.0000   1.0000   1.0000
     1.0000   1.0000   1.0000   1.0000   1.0000   1.0000   1.0000   1.0000
     1.0000   1.0000   1.0000   1.0000   1.0000   0.0000   1.0000   0.0000
     0.0000   0.0000   0.0000   0.0000   0.0000   0.0000   0.0000   0.0000
     0.0000   0.0000   0.0000   0.0000   0.0000   0.0000   0.0000   0.0000
     0.0000   0.0000   0.0000   0.0000   0.0000   0.0000   0.0000   0.0000

          k = 0.3333-0.3333 0.3333 ( 24303 PWs)   bands (ev):

    -7.9710  -7.3870  -6.9632  -6.8053  -6.4714  -6.1987  -5.9560  -5.4792
    -4.5201  -4.0199  -3.9259  -3.6951  -3.4160  -3.3500  -3.3154  -3.1824
    -3.0533  -2.8689  -2.6575  -2.3836  -2.0640  -1.8796  -1.8323  -1.7109
    -1.4771  -1.4696  -1.4063  -1.3415  -1.3314  -1.1855  -1.0897  -0.0003
     0.7497   0.8875   0.9645   0.9990   1.0979   1.4501   1.7276   1.7919
     1.8764   1.9661   2.0642   2.2776   2.5979   2.6054   2.7024   2.7296
     2.7462   2.8232   2.9392   3.2544   3.5167   4.0207   4.2617   4.3315
     4.7921   4.8149   4.8757   5.0289   5.0328   5.0709   5.2175   5.2656
     5.2869   5.4413   5.4623   5.5445   5.7129   5.8250   5.8706   6.5073
     6.6469   6.7453   6.9304   6.9473   6.9759   7.0528   7.0882   7.1186
     7.1799   7.1809   7.2437   7.2785   7.2883   7.3536   7.3751   7.3813
     7.4050   7.4830   7.7592   7.7609   7.8523   7.9363   7.9673   7.9765
     8.1542   8.1816   8.2790   8.3123   8.3890   8.4211   8.4312   8.5380
     8.7214   8.7554   8.9782   9.0298   9.1863   9.5602   9.6154   9.6925
     9.9423  10.4079  10.5408  10.5414  10.6106  10.9635  10.9642  11.2189
    11.2479  11.3160  11.5001  11.7562  11.8223  14.2466  15.6161  15.9546
    18.0700  18.2813  18.3469  18.5421  18.6687  18.7559  19.1641  19.3795
    19.4519  19.5003  19.5347  19.5686  19.6307  19.6468  19.6726  19.7307
    19.7618  19.8099  19.9245  19.9289  19.9968  20.0022  20.0716  20.1782

     occupation numbers 
     1.0000   1.0000   1.0000   1.0000   1.0000   1.0000   1.0000   1.0000
     1.0000   1.0000   1.0000   1.0000   1.0000   1.0000   1.0000   1.0000
     1.0000   1.0000   1.0000   1.0000   1.0000   1.0000   1.0000   1.0000
     1.0000   1.0000   1.0000   1.0000   1.0000   1.0000   1.0000   1.0000
     1.0000   1.0000   1.0000   1.0000   1.0000   1.0000   1.0000   1.0000
     1.0000   1.0000   1.0000   1.0000   1.0000   1.0000   1.0000   1.0000
     1.0000   1.0000   1.0000   1.0000   1.0000   1.0000   1.0000   1.0000
     1.0000   1.0000   1.0000   1.0000   1.0000   1.0000   1.0000   1.0000
     1.0000   1.0000   1.0000   1.0000   1.0000   1.0000   1.0000   1.0000
     1.0000   1.0000   1.0000   1.0000   1.0000   1.0000   1.0000   1.0000
     1.0000   1.0000   1.0000   1.0000   1.0000   1.0000   1.0000   1.0000
     1.0000   1.0000   1.0000   1.0000   1.0000   1.0000   1.0000   1.0000
     1.0000   1.0000   1.0000   1.0000   1.0000   1.0000   1.0000   1.0000
     1.0000   1.0000   1.0000   1.0000   1.0000   1.0000   1.0000   1.0000
     1.0000   1.0000   1.0000   1.0000   1.0000   1.0000   1.0000   1.0000
     1.0000   1.0000   1.0000   1.0000   1.0000   0.0000   1.0000   0.0000
     0.0000   0.0000   0.0000   0.0000   0.0000   0.0000   0.0000   0.0000
     0.0000   0.0000   0.0000   0.0000   0.0000   0.0000   0.0000   0.0000
     0.0000   0.0000   0.0000   0.0000   0.0000   0.0000   0.0000   0.0000

     highest occupied, lowest unoccupied level (ev):    14.9043   13.8766

!    total energy              =    -724.69338522 Ry
     Harris-Foulkes estimate   =    -724.69338436 Ry
     estimated scf accuracy    <       0.00000091 Ry

     The total energy is the sum of the following terms:

     one-electron contribution =     232.40757709 Ry
     hartree contribution      =      69.43537126 Ry
     xc contribution           =    -226.42973893 Ry
     ewald contribution        =    -800.10659464 Ry

     total magnetization       =     2.00 Bohr mag/cell
     absolute magnetization    =     2.20 Bohr mag/cell

     convergence has been achieved in  10 iterations

     Writing output data file di.save
 
     init_run     :      1.30s CPU      1.65s WALL (       1 calls)
     electrons    :     28.26s CPU     28.68s WALL (       1 calls)

     Called by init_run:
     wfcinit      :      0.77s CPU      0.83s WALL (       1 calls)
     wfcinit:atom :      0.01s CPU      0.01s WALL (       2 calls)
     wfcinit:wfcr :      0.72s CPU      0.78s WALL (       2 calls)
     potinit      :      0.10s CPU      0.11s WALL (       1 calls)

     Called by electrons:
     c_bands      :     26.48s CPU     26.86s WALL (      10 calls)
     sum_band     :      1.20s CPU      1.22s WALL (      10 calls)
     v_of_rho     :      0.40s CPU      0.40s WALL (      11 calls)
     v_h          :      0.01s CPU      0.01s WALL (      11 calls)
     v_xc         :      0.38s CPU      0.39s WALL (      11 calls)
     mix_rho      :      0.08s CPU      0.08s WALL (      10 calls)

     Called by c_bands:
     init_us_2    :      0.19s CPU      0.19s WALL (      42 calls)
     cegterg      :     23.56s CPU     23.92s WALL (      20 calls)

     Called by sum_band:

     Called by *egterg:
     h_psi        :      9.32s CPU      9.43s WALL (     137 calls)
     g_psi        :      0.05s CPU      0.06s WALL (     115 calls)
     cdiaghg      :     10.09s CPU     10.13s WALL (     135 calls)
     cegterg:over :      1.83s CPU      1.83s WALL (     115 calls)
     cegterg:upda :      1.42s CPU      1.42s WALL (     115 calls)
     cegterg:last :      0.52s CPU      0.52s WALL (      20 calls)

     Called by h_psi:
     h_psi:pot    :      9.21s CPU      9.31s WALL (     137 calls)
     h_psi:calbec :      2.00s CPU      2.01s WALL (     137 calls)
     vloc_psi     :      5.14s CPU      5.21s WALL (     137 calls)
     add_vuspsi   :      2.08s CPU      2.10s WALL (     137 calls)

     General routines
     calbec       :      1.99s CPU      2.01s WALL (     137 calls)
     fft          :      0.12s CPU      0.33s WALL (     228 calls)
     fftw         :      5.48s CPU      5.46s WALL (   20512 calls)
 
     Parallel routines
     fft_scatter  :      1.66s CPU      1.63s WALL (   20740 calls)
 
     PWSCF        :    32.43s CPU        36.16s WALL

 
   This run was terminated on:  10:31:32  12May2020            

=------------------------------------------------------------------------------=
   JOB DONE.
=------------------------------------------------------------------------------=
