
     Program PWSCF v.6.1 (svn rev. 13369) starts on 12May2020 at 10:25:55 

     This program is part of the open-source Quantum ESPRESSO suite
     for quantum simulation of materials; please cite
         "P. Giannozzi et al., J. Phys.:Condens. Matter 21 395502 (2009);
          URL http://www.quantum-espresso.org", 
     in publications or presentations arising from this work. More details at
     http://www.quantum-espresso.org/quote

     Parallel version (MPI), running on    96 processors
     K-points division:     npool     =       6
     R & G space division:  proc/nbgrp/npool/nimage =      16
     Reading input from scf.in
Warning: card &IONS ignored
Warning: card / ignored

     Current dimensions of program PWSCF are:
     Max number of different atomic species (ntypx) = 10
     Max number of k-points (npk) =  40000
     Max angular momentum in pseudopotentials (lmaxx) =  3

     Subspace diagonalization in iterative solution of the eigenvalue problem:
     a serial algorithm will be used

 
     Parallelization info
     --------------------
     sticks:   dense  smooth     PW     G-vecs:    dense   smooth      PW
     Min         252     252     67                12125    12125    1669
     Max         254     254     68                12129    12129    1672
     Sum        4049    4049   1085               194039   194039   26745
 


     bravais-lattice index     =            1
     lattice parameter (alat)  =      13.4862  a.u.
     unit-cell volume          =    2452.8358 (a.u.)^3
     number of atoms/cell      =           63
     number of atomic types    =            2
     number of electrons       =       254.00 (up: 127.00, down: 127.00)
     number of Kohn-Sham states=          152
     kinetic-energy cutoff     =      70.0000  Ry
     charge density cutoff     =     280.0000  Ry
     convergence threshold     =      1.0E-06
     mixing beta               =       0.5000
     number of iterations used =            8  plain     mixing
     Exchange-correlation      = PBE ( 1  4  3  4 0 0)

     celldm(1)=  13.486197  celldm(2)=   0.000000  celldm(3)=   0.000000
     celldm(4)=   0.000000  celldm(5)=   0.000000  celldm(6)=   0.000000

     crystal axes: (cart. coord. in units of alat)
               a(1) = (   1.000000   0.000000   0.000000 )  
               a(2) = (   0.000000   1.000000   0.000000 )  
               a(3) = (   0.000000   0.000000   1.000000 )  

     reciprocal axes: (cart. coord. in units 2 pi/alat)
               b(1) = (  1.000000  0.000000  0.000000 )  
               b(2) = (  0.000000  1.000000  0.000000 )  
               b(3) = (  0.000000  0.000000  1.000000 )  


     PseudoPot. # 1 for C  read from file:
     /home/tjsmart/Pseudo/C_ONCV_PBE-1.0.upf
     MD5 check sum: 72b63e32b2fd29504de26a4901699f60
     Pseudo is Norm-conserving, Zval =  4.0
     Generated using ONCVPSP code by D. R. Hamann
     Using radial grid of 1248 points,  4 beta functions with: 
                l(1) =   0
                l(2) =   0
                l(3) =   1
                l(4) =   1

     PseudoPot. # 2 for N  read from file:
     /home/tjsmart/Pseudo/N_ONCV_PBE-1.0.upf
     MD5 check sum: 09890da6b2972017450f7114a6086fad
     Pseudo is Norm-conserving, Zval =  5.0
     Generated using ONCVPSP code by D. R. Hamann
     Using radial grid of 1058 points,  4 beta functions with: 
                l(1) =   0
                l(2) =   0
                l(3) =   1
                l(4) =   1

     atomic species   valence    mass     pseudopotential
        C              4.00    12.01110     C ( 1.00)
        N              5.00    14.00670     N ( 1.00)

     Starting magnetic structure 
     atomic species   magnetization
        C            0.200
        N            0.200

      6 Sym. Ops. (no inversion) found


                                    s                        frac. trans.

      isym =  1     identity                                     

 cryst.   s( 1) = (     1          0          0      )
                  (     0          1          0      )
                  (     0          0          1      )

 cart.    s( 1) = (  1.0000000  0.0000000  0.0000000 )
                  (  0.0000000  1.0000000  0.0000000 )
                  (  0.0000000  0.0000000  1.0000000 )


      isym =  2     120 deg rotation - cart. axis [-1,-1,-1]     

 cryst.   s( 2) = (     0          0          1      )
                  (     1          0          0      )
                  (     0          1          0      )

 cart.    s( 2) = (  0.0000000  1.0000000  0.0000000 )
                  (  0.0000000  0.0000000  1.0000000 )
                  (  1.0000000  0.0000000  0.0000000 )


      isym =  3     120 deg rotation - cart. axis [1,1,1]        

 cryst.   s( 3) = (     0          1          0      )
                  (     0          0          1      )
                  (     1          0          0      )

 cart.    s( 3) = (  0.0000000  0.0000000  1.0000000 )
                  (  1.0000000  0.0000000  0.0000000 )
                  (  0.0000000  1.0000000  0.0000000 )


      isym =  4     inv. 180 deg rotation - cart. axis [1,-1,0]  

 cryst.   s( 4) = (     0          1          0      )
                  (     1          0          0      )
                  (     0          0          1      )

 cart.    s( 4) = (  0.0000000  1.0000000  0.0000000 )
                  (  1.0000000  0.0000000  0.0000000 )
                  (  0.0000000  0.0000000  1.0000000 )


      isym =  5     inv. 180 deg rotation - cart. axis [-1,0,1]  

 cryst.   s( 5) = (     0          0          1      )
                  (     0          1          0      )
                  (     1          0          0      )

 cart.    s( 5) = (  0.0000000  0.0000000  1.0000000 )
                  (  0.0000000  1.0000000  0.0000000 )
                  (  1.0000000  0.0000000  0.0000000 )


      isym =  6     inv. 180 deg rotation - cart. axis [0,1,-1]  

 cryst.   s( 6) = (     1          0          0      )
                  (     0          0          1      )
                  (     0          1          0      )

 cart.    s( 6) = (  1.0000000  0.0000000  0.0000000 )
                  (  0.0000000  0.0000000  1.0000000 )
                  (  0.0000000  1.0000000  0.0000000 )


     point group C_3v (3m)  
     there are  3 classes
     the character table:

       E     2C3   3s_v 
A_1    1.00  1.00  1.00
A_2    1.00  1.00 -1.00
E      2.00 -1.00  0.00

     the symmetry operations in each class and the name of the first element:

     E        1
          identity                                               
     2C3      2    3
          120 deg rotation - cart. axis [-1,-1,-1]               
     3s_v     4    5    6
          inv. 180 deg rotation - cart. axis [1,-1,0]            

   Cartesian axes

     site n.     atom                  positions (alat units)
         1           C   tau(   1) = (   0.3757553   0.3757553   0.8736395  )
         2           C   tau(   2) = (   0.5001453   0.0002970   0.0002970  )
         3           C   tau(   3) = (   0.5000223  -0.0002305   0.5000223  )
         4           C   tau(   4) = (   0.0002970   0.5001453   0.0002970  )
         5           C   tau(   5) = (  -0.0002305   0.5000223   0.5000223  )
         6           C   tau(   6) = (  -0.0001163  -0.0001163  -0.0001163  )
         7           C   tau(   7) = (   0.0002970   0.0002970   0.5001453  )
         8           C   tau(   8) = (   0.2503244   0.2503244  -0.0010848  )
         9           C   tau(   9) = (   0.2509669   0.2509669   0.4954651  )
        10           C   tau(  10) = (   0.2502948   0.7490746   0.0009335  )
        11           C   tau(  11) = (   0.2519649   0.7481396   0.5018437  )
        12           C   tau(  12) = (   0.7490746   0.2502948   0.0009335  )
        13           C   tau(  13) = (   0.7481396   0.2519649   0.5018437  )
        14           C   tau(  14) = (   0.7495886   0.7495886  -0.0004886  )
        15           C   tau(  15) = (   0.5000223   0.5000223  -0.0002305  )
        16           C   tau(  16) = (   0.7488819   0.7488819   0.4985771  )
        17           C   tau(  17) = (   0.5018437   0.2519649   0.7481396  )
        18           C   tau(  18) = (   0.5018437   0.7481396   0.2519649  )
        19           C   tau(  19) = (   0.4985771   0.7488819   0.7488819  )
        20           C   tau(  20) = (  -0.0010848   0.2503244   0.2503244  )
        21           C   tau(  21) = (   0.0009335   0.2502948   0.7490746  )
        22           C   tau(  22) = (   0.0009335   0.7490746   0.2502948  )
        23           C   tau(  23) = (  -0.0004886   0.7495886   0.7495886  )
        24           C   tau(  24) = (   0.2509669   0.4954651   0.2509669  )
        25           C   tau(  25) = (   0.2519649   0.5018437   0.7481396  )
        26           C   tau(  26) = (   0.2503244  -0.0010848   0.2503244  )
        27           C   tau(  27) = (   0.2502948   0.0009335   0.7490746  )
        28           C   tau(  28) = (   0.7481396   0.5018437   0.2519649  )
        29           C   tau(  29) = (   0.7488819   0.4985771   0.7488819  )
        30           C   tau(  30) = (   0.4954651   0.2509669   0.2509669  )
        31           C   tau(  31) = (   0.7490746   0.0009335   0.2502948  )
        32           C   tau(  32) = (   0.6244835   0.8740965   0.6244835  )
        33           C   tau(  33) = (   0.6353798   0.3652385   0.6353798  )
        34           C   tau(  34) = (   0.3758036   0.8762106   0.8762106  )
        35           C   tau(  35) = (   0.3757553   0.8736395   0.3757553  )
        36           C   tau(  36) = (   0.8762106   0.3758036   0.8762106  )
        37           C   tau(  37) = (   0.8736395   0.3757553   0.3757553  )
        38           C   tau(  38) = (   0.8746125   0.8746125   0.8746125  )
        39           C   tau(  39) = (   0.8762106   0.8762106   0.3758036  )
        40           C   tau(  40) = (   0.1253777   0.1253777   0.8743244  )
        41           C   tau(  41) = (   0.1241632   0.1241632   0.3748692  )
        42           C   tau(  42) = (   0.1240294   0.6244528   0.8759780  )
        43           C   tau(  43) = (   0.1268711   0.6231640   0.3763427  )
        44           C   tau(  44) = (   0.6244528   0.1240294   0.8759780  )
        45           C   tau(  45) = (   0.6231640   0.1268711   0.3763427  )
        46           C   tau(  46) = (   0.6244528   0.8759780   0.1240294  )
        47           C   tau(  47) = (   0.6244835   0.6244835   0.8740965  )
        48           C   tau(  48) = (   0.3748692   0.1241632   0.1241632  )
        49           C   tau(  49) = (   0.3763427   0.1268711   0.6231640  )
        50           C   tau(  50) = (   0.3763427   0.6231640   0.1268711  )
        51           C   tau(  51) = (   0.3652385   0.6353798   0.6353798  )
        52           C   tau(  52) = (   0.8743244   0.1253777   0.1253777  )
        53           C   tau(  53) = (   0.8759780   0.1240294   0.6244528  )
        54           C   tau(  54) = (   0.8759780   0.6244528   0.1240294  )
        55           C   tau(  55) = (   0.8740965   0.6244835   0.6244835  )
        56           C   tau(  56) = (   0.1241632   0.3748692   0.1241632  )
        57           C   tau(  57) = (   0.1268711   0.3763427   0.6231640  )
        58           C   tau(  58) = (   0.1253777   0.8743244   0.1253777  )
        59           C   tau(  59) = (   0.1240294   0.8759780   0.6244528  )
        60           C   tau(  60) = (   0.6231640   0.3763427   0.1268711  )
        61           C   tau(  61) = (   0.6353798   0.6353798   0.3652385  )
        62           C   tau(  62) = (   0.7495886  -0.0004886   0.7495886  )
        63           N   tau(  63) = (   0.3660676   0.3660676   0.3660676  )

   Crystallographic axes

     site n.     atom                  positions (cryst. coord.)
         1           C   tau(   1) = (  0.3757553  0.3757553  0.8736395  )
         2           C   tau(   2) = (  0.5001453  0.0002970  0.0002970  )
         3           C   tau(   3) = (  0.5000223 -0.0002305  0.5000223  )
         4           C   tau(   4) = (  0.0002970  0.5001453  0.0002970  )
         5           C   tau(   5) = ( -0.0002305  0.5000223  0.5000223  )
         6           C   tau(   6) = ( -0.0001163 -0.0001163 -0.0001163  )
         7           C   tau(   7) = (  0.0002970  0.0002970  0.5001453  )
         8           C   tau(   8) = (  0.2503244  0.2503244 -0.0010848  )
         9           C   tau(   9) = (  0.2509669  0.2509669  0.4954651  )
        10           C   tau(  10) = (  0.2502948  0.7490746  0.0009335  )
        11           C   tau(  11) = (  0.2519649  0.7481396  0.5018437  )
        12           C   tau(  12) = (  0.7490746  0.2502948  0.0009335  )
        13           C   tau(  13) = (  0.7481396  0.2519649  0.5018437  )
        14           C   tau(  14) = (  0.7495886  0.7495886 -0.0004886  )
        15           C   tau(  15) = (  0.5000223  0.5000223 -0.0002305  )
        16           C   tau(  16) = (  0.7488819  0.7488819  0.4985771  )
        17           C   tau(  17) = (  0.5018437  0.2519649  0.7481396  )
        18           C   tau(  18) = (  0.5018437  0.7481396  0.2519649  )
        19           C   tau(  19) = (  0.4985771  0.7488819  0.7488819  )
        20           C   tau(  20) = ( -0.0010848  0.2503244  0.2503244  )
        21           C   tau(  21) = (  0.0009335  0.2502948  0.7490746  )
        22           C   tau(  22) = (  0.0009335  0.7490746  0.2502948  )
        23           C   tau(  23) = ( -0.0004886  0.7495886  0.7495886  )
        24           C   tau(  24) = (  0.2509669  0.4954651  0.2509669  )
        25           C   tau(  25) = (  0.2519649  0.5018437  0.7481396  )
        26           C   tau(  26) = (  0.2503244 -0.0010848  0.2503244  )
        27           C   tau(  27) = (  0.2502948  0.0009335  0.7490746  )
        28           C   tau(  28) = (  0.7481396  0.5018437  0.2519649  )
        29           C   tau(  29) = (  0.7488819  0.4985771  0.7488819  )
        30           C   tau(  30) = (  0.4954651  0.2509669  0.2509669  )
        31           C   tau(  31) = (  0.7490746  0.0009335  0.2502948  )
        32           C   tau(  32) = (  0.6244835  0.8740965  0.6244835  )
        33           C   tau(  33) = (  0.6353798  0.3652385  0.6353798  )
        34           C   tau(  34) = (  0.3758036  0.8762106  0.8762106  )
        35           C   tau(  35) = (  0.3757553  0.8736395  0.3757553  )
        36           C   tau(  36) = (  0.8762106  0.3758036  0.8762106  )
        37           C   tau(  37) = (  0.8736395  0.3757553  0.3757553  )
        38           C   tau(  38) = (  0.8746125  0.8746125  0.8746125  )
        39           C   tau(  39) = (  0.8762106  0.8762106  0.3758036  )
        40           C   tau(  40) = (  0.1253777  0.1253777  0.8743244  )
        41           C   tau(  41) = (  0.1241632  0.1241632  0.3748692  )
        42           C   tau(  42) = (  0.1240294  0.6244528  0.8759780  )
        43           C   tau(  43) = (  0.1268711  0.6231640  0.3763427  )
        44           C   tau(  44) = (  0.6244528  0.1240294  0.8759780  )
        45           C   tau(  45) = (  0.6231640  0.1268711  0.3763427  )
        46           C   tau(  46) = (  0.6244528  0.8759780  0.1240294  )
        47           C   tau(  47) = (  0.6244835  0.6244835  0.8740965  )
        48           C   tau(  48) = (  0.3748692  0.1241632  0.1241632  )
        49           C   tau(  49) = (  0.3763427  0.1268711  0.6231640  )
        50           C   tau(  50) = (  0.3763427  0.6231640  0.1268711  )
        51           C   tau(  51) = (  0.3652385  0.6353798  0.6353798  )
        52           C   tau(  52) = (  0.8743244  0.1253777  0.1253777  )
        53           C   tau(  53) = (  0.8759780  0.1240294  0.6244528  )
        54           C   tau(  54) = (  0.8759780  0.6244528  0.1240294  )
        55           C   tau(  55) = (  0.8740965  0.6244835  0.6244835  )
        56           C   tau(  56) = (  0.1241632  0.3748692  0.1241632  )
        57           C   tau(  57) = (  0.1268711  0.3763427  0.6231640  )
        58           C   tau(  58) = (  0.1253777  0.8743244  0.1253777  )
        59           C   tau(  59) = (  0.1240294  0.8759780  0.6244528  )
        60           C   tau(  60) = (  0.6231640  0.3763427  0.1268711  )
        61           C   tau(  61) = (  0.6353798  0.6353798  0.3652385  )
        62           C   tau(  62) = (  0.7495886 -0.0004886  0.7495886  )
        63           N   tau(  63) = (  0.3660676  0.3660676  0.3660676  )

     number of k points=     6  Marzari-Vanderbilt smearing, width (Ry)=  0.0010
                       cart. coord. in units 2pi/alat
        k(    1) = (   0.0000000   0.0000000   0.0000000), wk =   0.0370370
        k(    2) = (   0.0000000   0.0000000   0.3333333), wk =   0.2222222
        k(    3) = (   0.0000000   0.3333333   0.3333333), wk =   0.2222222
        k(    4) = (   0.3333333   0.3333333   0.3333333), wk =   0.0740741
        k(    5) = (  -0.3333333   0.0000000   0.3333333), wk =   0.2222222
        k(    6) = (   0.3333333  -0.3333333   0.3333333), wk =   0.2222222

                       cryst. coord.
        k(    1) = (   0.0000000   0.0000000   0.0000000), wk =   0.0370370
        k(    2) = (   0.0000000   0.0000000   0.3333333), wk =   0.2222222
        k(    3) = (   0.0000000   0.3333333   0.3333333), wk =   0.2222222
        k(    4) = (   0.3333333   0.3333333   0.3333333), wk =   0.0740741
        k(    5) = (  -0.3333333   0.0000000   0.3333333), wk =   0.2222222
        k(    6) = (   0.3333333  -0.3333333   0.3333333), wk =   0.2222222

     Dense  grid:   194039 G-vectors     FFT dimensions: (  72,  72,  72)

     Estimated max dynamical RAM per process >      60.23MB

     Estimated total allocated dynamical RAM >    5782.56MB
     Generating pointlists ...
     new r_m :   0.0858 (alat units)  1.1568 (a.u.) for type    1
     new r_m :   0.0858 (alat units)  1.1568 (a.u.) for type    2

     Initial potential from superposition of free atoms

     starting charge  252.99722, renormalised to  254.00000
     Starting wfc are  252 randomized atomic wfcs

     total cpu time spent up to now is        3.6 secs

     per-process dynamical memory:    59.5 Mb

     Self-consistent Calculation

     iteration #  1     ecut=    70.00 Ry     beta=0.50
     Davidson diagonalization with overlap
     ethr =  1.00E-02,  avg # of iterations =  3.0

     total cpu time spent up to now is        5.9 secs

     total energy              =    -724.34080711 Ry
     Harris-Foulkes estimate   =    -724.78390477 Ry
     estimated scf accuracy    <       4.22796541 Ry

     total magnetization       =     0.00 Bohr mag/cell
     absolute magnetization    =     0.90 Bohr mag/cell

     iteration #  2     ecut=    70.00 Ry     beta=0.50
     Davidson diagonalization with overlap
     ethr =  1.66E-03,  avg # of iterations =  2.0

     total cpu time spent up to now is        7.3 secs

     total energy              =    -724.66646932 Ry
     Harris-Foulkes estimate   =    -724.58337998 Ry
     estimated scf accuracy    <       0.66943559 Ry

     total magnetization       =    -0.00 Bohr mag/cell
     absolute magnetization    =     0.35 Bohr mag/cell

     iteration #  3     ecut=    70.00 Ry     beta=0.50
     Davidson diagonalization with overlap
     ethr =  2.64E-04,  avg # of iterations =  9.3

     total cpu time spent up to now is       11.7 secs

     total energy              =    -724.73551961 Ry
     Harris-Foulkes estimate   =    -724.77682946 Ry
     estimated scf accuracy    <       0.15214093 Ry

     total magnetization       =     0.00 Bohr mag/cell
     absolute magnetization    =     0.11 Bohr mag/cell

     iteration #  4     ecut=    70.00 Ry     beta=0.50
     Davidson diagonalization with overlap
     ethr =  5.99E-05,  avg # of iterations =  7.3

     total cpu time spent up to now is       15.3 secs

     total energy              =    -724.77391132 Ry
     Harris-Foulkes estimate   =    -724.77146541 Ry
     estimated scf accuracy    <       0.01305658 Ry

     total magnetization       =     0.00 Bohr mag/cell
     absolute magnetization    =     0.07 Bohr mag/cell

     iteration #  5     ecut=    70.00 Ry     beta=0.50
     Davidson diagonalization with overlap
     ethr =  5.14E-06,  avg # of iterations =  7.4

     total cpu time spent up to now is       19.0 secs

     total energy              =    -724.77718376 Ry
     Harris-Foulkes estimate   =    -724.77693008 Ry
     estimated scf accuracy    <       0.00151871 Ry

     total magnetization       =    -0.00 Bohr mag/cell
     absolute magnetization    =     0.04 Bohr mag/cell

     iteration #  6     ecut=    70.00 Ry     beta=0.50
     Davidson diagonalization with overlap
     ethr =  5.98E-07,  avg # of iterations =  5.8

     total cpu time spent up to now is       22.2 secs

     total energy              =    -724.77743657 Ry
     Harris-Foulkes estimate   =    -724.77746327 Ry
     estimated scf accuracy    <       0.00020111 Ry

     total magnetization       =    -0.00 Bohr mag/cell
     absolute magnetization    =     0.02 Bohr mag/cell

     iteration #  7     ecut=    70.00 Ry     beta=0.50
     Davidson diagonalization with overlap
     ethr =  7.92E-08,  avg # of iterations =  3.0

     total cpu time spent up to now is       24.3 secs

     total energy              =    -724.77749376 Ry
     Harris-Foulkes estimate   =    -724.77750290 Ry
     estimated scf accuracy    <       0.00003663 Ry

     total magnetization       =    -0.00 Bohr mag/cell
     absolute magnetization    =     0.01 Bohr mag/cell

     iteration #  8     ecut=    70.00 Ry     beta=0.50
     Davidson diagonalization with overlap
     ethr =  1.44E-08,  avg # of iterations =  2.7

     total cpu time spent up to now is       26.1 secs

     total energy              =    -724.77750172 Ry
     Harris-Foulkes estimate   =    -724.77750167 Ry
     estimated scf accuracy    <       0.00000290 Ry

     total magnetization       =    -0.00 Bohr mag/cell
     absolute magnetization    =     0.01 Bohr mag/cell

     iteration #  9     ecut=    70.00 Ry     beta=0.50
     Davidson diagonalization with overlap
     ethr =  1.14E-09,  avg # of iterations =  3.2
 
     Magnetic moment per site:
     atom:    1    charge:    1.8401    magn:    0.0000    constr:    0.0000
     atom:    2    charge:    1.8590    magn:   -0.0000    constr:    0.0000
     atom:    3    charge:    1.8478    magn:    0.0000    constr:    0.0000
     atom:    4    charge:    1.8590    magn:   -0.0000    constr:    0.0000
     atom:    5    charge:    1.8478    magn:    0.0000    constr:    0.0000
     atom:    6    charge:    1.8370    magn:    0.0000    constr:    0.0000
     atom:    7    charge:    1.8590    magn:   -0.0000    constr:    0.0000
     atom:    8    charge:    1.8404    magn:    0.0000    constr:    0.0000
     atom:    9    charge:    1.8169    magn:   -0.0001    constr:    0.0000
     atom:   10    charge:    1.8350    magn:    0.0000    constr:    0.0000
     atom:   11    charge:    1.8478    magn:    0.0000    constr:    0.0000
     atom:   12    charge:    1.8350    magn:    0.0000    constr:    0.0000
     atom:   13    charge:    1.8478    magn:    0.0000    constr:    0.0000
     atom:   14    charge:    1.8403    magn:    0.0000    constr:    0.0000
     atom:   15    charge:    1.8478    magn:    0.0000    constr:    0.0000
     atom:   16    charge:    1.8482    magn:    0.0000    constr:    0.0000
     atom:   17    charge:    1.8478    magn:    0.0000    constr:    0.0000
     atom:   18    charge:    1.8478    magn:    0.0000    constr:    0.0000
     atom:   19    charge:    1.8482    magn:    0.0000    constr:    0.0000
     atom:   20    charge:    1.8404    magn:    0.0000    constr:    0.0000
     atom:   21    charge:    1.8350    magn:    0.0000    constr:    0.0000
     atom:   22    charge:    1.8350    magn:    0.0000    constr:    0.0000
     atom:   23    charge:    1.8403    magn:    0.0000    constr:    0.0000
     atom:   24    charge:    1.8169    magn:   -0.0001    constr:    0.0000
     atom:   25    charge:    1.8478    magn:    0.0000    constr:    0.0000
     atom:   26    charge:    1.8404    magn:    0.0000    constr:    0.0000
     atom:   27    charge:    1.8350    magn:    0.0000    constr:    0.0000
     atom:   28    charge:    1.8478    magn:    0.0000    constr:    0.0000
     atom:   29    charge:    1.8482    magn:    0.0000    constr:    0.0000
     atom:   30    charge:    1.8169    magn:   -0.0001    constr:    0.0000
     atom:   31    charge:    1.8350    magn:    0.0000    constr:    0.0000
     atom:   32    charge:    1.8402    magn:    0.0000    constr:    0.0000
     atom:   33    charge:    1.8536    magn:    0.0000    constr:    0.0000
     atom:   34    charge:    1.8377    magn:    0.0000    constr:    0.0000
     atom:   35    charge:    1.8401    magn:    0.0000    constr:    0.0000
     atom:   36    charge:    1.8377    magn:    0.0000    constr:    0.0000
     atom:   37    charge:    1.8401    magn:    0.0000    constr:    0.0000
     atom:   38    charge:    1.8431    magn:    0.0000    constr:    0.0000
     atom:   39    charge:    1.8377    magn:    0.0000    constr:    0.0000
     atom:   40    charge:    1.8434    magn:    0.0000    constr:    0.0000
     atom:   41    charge:    1.8496    magn:    0.0000    constr:    0.0000
     atom:   42    charge:    1.8407    magn:    0.0000    constr:    0.0000
     atom:   43    charge:    1.8371    magn:    0.0000    constr:    0.0000
     atom:   44    charge:    1.8407    magn:    0.0000    constr:    0.0000
     atom:   45    charge:    1.8371    magn:    0.0000    constr:    0.0000
     atom:   46    charge:    1.8407    magn:    0.0000    constr:    0.0000
     atom:   47    charge:    1.8402    magn:    0.0000    constr:    0.0000
     atom:   48    charge:    1.8496    magn:    0.0000    constr:    0.0000
     atom:   49    charge:    1.8371    magn:    0.0000    constr:    0.0000
     atom:   50    charge:    1.8371    magn:    0.0000    constr:    0.0000
     atom:   51    charge:    1.8536    magn:    0.0000    constr:    0.0000
     atom:   52    charge:    1.8434    magn:    0.0000    constr:    0.0000
     atom:   53    charge:    1.8407    magn:    0.0000    constr:    0.0000
     atom:   54    charge:    1.8407    magn:    0.0000    constr:    0.0000
     atom:   55    charge:    1.8402    magn:    0.0000    constr:    0.0000
     atom:   56    charge:    1.8496    magn:    0.0000    constr:    0.0000
     atom:   57    charge:    1.8371    magn:    0.0000    constr:    0.0000
     atom:   58    charge:    1.8434    magn:    0.0000    constr:    0.0000
     atom:   59    charge:    1.8407    magn:    0.0000    constr:    0.0000
     atom:   60    charge:    1.8371    magn:    0.0000    constr:    0.0000
     atom:   61    charge:    1.8536    magn:    0.0000    constr:    0.0000
     atom:   62    charge:    1.8403    magn:    0.0000    constr:    0.0000
     atom:   63    charge:    2.9275    magn:    0.0007    constr:    0.0000

     total cpu time spent up to now is       28.4 secs

     End of self-consistent calculation

 ------ SPIN UP ------------


          k = 0.0000 0.0000 0.0000 ( 24207 PWs)   bands (ev):

    -8.5561  -6.9335  -6.2825  -6.2825  -6.1718  -6.1718  -5.8848  -4.9247
    -4.1412  -4.1412  -4.1091  -4.1091  -4.0298  -4.0298  -4.0175  -3.9440
    -3.8790  -3.8790  -3.3641  -2.9669  -2.6803  -2.6803  -2.0975  -0.3786
    -0.3786  -0.3552  -0.3235  -0.1071   0.1642   0.1642   0.2730   0.2730
     0.3488   0.5870   0.8086   0.8086   0.9584   0.9584   0.9751   1.0135
     1.0135   1.0230   1.3244   1.3244   3.0571   3.9127   3.9127   4.0298
     4.1921   4.1941   4.1941   4.2237   4.2402   4.2402   4.4010   4.4010
     4.4579   4.4579   4.5549   4.6321   4.6321   4.6333   4.6389   4.7362
     4.7362   4.8671   4.9268   4.9268   5.0350   5.1906   5.1906   5.2613
     5.3175   5.3175   5.3540   5.3848   5.3848   6.0032   6.0032   6.0347
     6.5977   6.5977   6.6926   6.9731   7.0002   7.0002   7.5182   8.3036
     8.3036   8.3657   8.4309   8.4309   8.6161   8.6161   8.7559   8.7780
     8.7780   8.7850   8.8365   8.8365   8.8568   9.2268   9.2339   9.2339
     9.6539   9.6539   9.8524   9.8659   9.8745   9.8745   9.8887   9.9301
     9.9301   9.9425   9.9625   9.9625  10.0557  10.0557  10.2362  10.2362
    10.2647  11.0687  12.2819  12.4310  12.4310  13.9559  15.2848  15.2848
    17.2991  17.3308  17.3308  17.4823  17.5240  17.5240  17.8062  17.8818
    17.8818  17.9755  17.9755  18.3437  18.8977  18.8977  18.9305  20.6196
    20.7574  20.7574  20.8022  20.8834  20.8835  20.9660  20.9661  20.9846

     occupation numbers 
     1.0000   1.0000   1.0000   1.0000   1.0000   1.0000   1.0000   1.0000
     1.0000   1.0000   1.0000   1.0000   1.0000   1.0000   1.0000   1.0000
     1.0000   1.0000   1.0000   1.0000   1.0000   1.0000   1.0000   1.0000
     1.0000   1.0000   1.0000   1.0000   1.0000   1.0000   1.0000   1.0000
     1.0000   1.0000   1.0000   1.0000   1.0000   1.0000   1.0000   1.0000
     1.0000   1.0000   1.0000   1.0000   1.0000   1.0000   1.0000   1.0000
     1.0000   1.0000   1.0000   1.0000   1.0000   1.0000   1.0000   1.0000
     1.0000   1.0000   1.0000   1.0000   1.0000   1.0000   1.0000   1.0000
     1.0000   1.0000   1.0000   1.0000   1.0000   1.0000   1.0000   1.0000
     1.0000   1.0000   1.0000   1.0000   1.0000   1.0000   1.0000   1.0000
     1.0000   1.0000   1.0000   1.0000   1.0000   1.0000   1.0000   1.0000
     1.0000   1.0000   1.0000   1.0000   1.0000   1.0000   1.0000   1.0000
     1.0000   1.0000   1.0000   1.0000   1.0000   1.0000   1.0000   1.0000
     1.0000   1.0000   1.0000   1.0000   1.0000   1.0000   1.0000   1.0000
     1.0000   1.0000   1.0000   1.0000   1.0000   1.0000   1.0000   1.0000
     1.0000   1.0000   1.0000   1.0000   1.0000   1.0000   0.0000   0.0000
     0.0000   0.0000   0.0000   0.0000   0.0000   0.0000   0.0000   0.0000
     0.0000   0.0000   0.0000   0.0000   0.0000   0.0000   0.0000   0.0000
     0.0000   0.0000   0.0000   0.0000   0.0000   0.0000   0.0000   0.0000

          k = 0.0000 0.0000 0.3333 ( 24280 PWs)   bands (ev):

    -8.3241  -7.5567  -6.5463  -6.0370  -5.9308  -5.8212  -5.4909  -5.2967
    -5.1782  -4.9808  -4.5116  -4.1218  -3.8156  -3.7928  -3.6877  -3.4381
    -3.2106  -3.1519  -2.9308  -2.6006  -2.5085  -2.3904  -2.3216  -1.7721
    -0.8343  -0.6957  -0.5870  -0.3441   0.1790   0.2701   0.3557   0.3965
     0.4730   0.5552   0.5714   0.6592   0.7246   0.7456   0.9783   1.4761
     1.9899   2.0115   2.1493   2.2310   2.4136   2.4796   2.4834   2.7440
     2.9496   3.0001   3.1659   3.1672   3.8942   3.9734   4.0510   4.0630
     4.2899   4.3699   4.5107   4.5523   5.0840   5.1096   5.1422   5.2010
     5.2052   5.5946   5.6147   5.7146   5.7400   6.0666   6.1088   6.1821
     6.1869   6.3234   6.3987   6.4544   6.5011   6.6129   6.6240   6.7487
     6.7560   6.8838   6.9032   6.9325   7.1419   7.1582   7.1810   7.2589
     7.4152   7.4730   7.6730   7.7728   7.8270   8.0505   8.1451   8.2740
     8.2984   8.4396   8.6763   8.7082   8.7658   9.0995   9.1896   9.3497
     9.3772   9.6289   9.6548   9.7117   9.7763   9.9163   9.9330   9.9496
     9.9652  10.0113  10.1050  10.1145  10.1693  10.2658  10.2703  10.3579
    10.3693  11.3721  11.7056  11.7217  12.0385  13.7054  14.9772  15.1526
    17.1913  17.2961  17.9499  18.3164  18.3527  18.4870  18.5072  18.6119
    18.8232  18.8334  18.9792  19.0803  19.2078  19.8293  19.8611  20.4901
    20.6644  20.6878  20.7863  20.7896  20.8253  20.8652  20.9067  20.9437

     occupation numbers 
     1.0000   1.0000   1.0000   1.0000   1.0000   1.0000   1.0000   1.0000
     1.0000   1.0000   1.0000   1.0000   1.0000   1.0000   1.0000   1.0000
     1.0000   1.0000   1.0000   1.0000   1.0000   1.0000   1.0000   1.0000
     1.0000   1.0000   1.0000   1.0000   1.0000   1.0000   1.0000   1.0000
     1.0000   1.0000   1.0000   1.0000   1.0000   1.0000   1.0000   1.0000
     1.0000   1.0000   1.0000   1.0000   1.0000   1.0000   1.0000   1.0000
     1.0000   1.0000   1.0000   1.0000   1.0000   1.0000   1.0000   1.0000
     1.0000   1.0000   1.0000   1.0000   1.0000   1.0000   1.0000   1.0000
     1.0000   1.0000   1.0000   1.0000   1.0000   1.0000   1.0000   1.0000
     1.0000   1.0000   1.0000   1.0000   1.0000   1.0000   1.0000   1.0000
     1.0000   1.0000   1.0000   1.0000   1.0000   1.0000   1.0000   1.0000
     1.0000   1.0000   1.0000   1.0000   1.0000   1.0000   1.0000   1.0000
     1.0000   1.0000   1.0000   1.0000   1.0000   1.0000   1.0000   1.0000
     1.0000   1.0000   1.0000   1.0000   1.0000   1.0000   1.0000   1.0000
     1.0000   1.0000   1.0000   1.0000   1.0000   1.0000   1.0000   1.0000
     1.0000   1.0000   1.0000   1.0000   1.0000   1.0000   1.0000   0.0000
     0.0000   0.0000   0.0000   0.0000   0.0000   0.0000   0.0000   0.0000
     0.0000   0.0000   0.0000   0.0000   0.0000   0.0000   0.0000   0.0000
     0.0000   0.0000   0.0000   0.0000   0.0000   0.0000   0.0000   0.0000

          k = 0.0000 0.3333 0.3333 ( 24236 PWs)   bands (ev):

    -8.1060  -7.3728  -7.2324  -6.5671  -5.9526  -5.6728  -5.3237  -5.0164
    -4.9958  -4.8440  -4.4930  -4.2619  -4.2246  -3.9396  -3.5366  -3.5091
    -2.7671  -2.3767  -2.3274  -2.3226  -2.2027  -2.1885  -2.0481  -1.8892
    -1.4973  -1.3144  -1.0962  -0.9219  -0.5418  -0.0194   0.0620   0.1236
     0.1804   0.4783   0.6901   1.1840   1.1998   1.3058   1.3780   1.4012
     1.4562   1.4567   1.9443   2.0652   2.1336   2.4056   2.7286   2.8261
     2.9676   3.5171   3.6539   3.7028   3.7812   3.8143   3.9725   4.0361
     4.1135   4.5519   4.6764   4.8264   5.0272   5.0505   5.1430   5.2999
     5.3523   5.5890   5.6510   5.6890   5.7482   5.9813   6.0276   6.0780
     6.1388   6.2305   6.2706   6.4936   6.5402   6.6001   6.6513   6.8572
     6.9112   6.9433   7.0381   7.0414   7.2322   7.2899   7.4985   7.7077
     7.9320   7.9462   8.0739   8.0929   8.1166   8.2198   8.2613   8.3327
     8.3372   8.4016   8.5358   8.6302   8.7005   8.7065   8.8416   8.8896
     9.0676   9.1972   9.2390   9.3100   9.4644   9.4795   9.5747   9.6333
     9.7008   9.7935   9.9041  10.0446  10.0464  10.1190  10.4414  10.7581
    11.0181  11.2067  11.5474  11.8649  12.2240  13.5157  14.9136  15.2161
    18.0758  18.1961  18.2319  18.3034  18.3559  18.8300  18.8549  18.9872
    19.1803  19.2303  19.4430  19.4746  19.6981  19.8093  19.9742  20.0198
    20.1974  20.4558  20.4814  20.5055  20.5658  20.5951  20.6133  20.6510

     occupation numbers 
     1.0000   1.0000   1.0000   1.0000   1.0000   1.0000   1.0000   1.0000
     1.0000   1.0000   1.0000   1.0000   1.0000   1.0000   1.0000   1.0000
     1.0000   1.0000   1.0000   1.0000   1.0000   1.0000   1.0000   1.0000
     1.0000   1.0000   1.0000   1.0000   1.0000   1.0000   1.0000   1.0000
     1.0000   1.0000   1.0000   1.0000   1.0000   1.0000   1.0000   1.0000
     1.0000   1.0000   1.0000   1.0000   1.0000   1.0000   1.0000   1.0000
     1.0000   1.0000   1.0000   1.0000   1.0000   1.0000   1.0000   1.0000
     1.0000   1.0000   1.0000   1.0000   1.0000   1.0000   1.0000   1.0000
     1.0000   1.0000   1.0000   1.0000   1.0000   1.0000   1.0000   1.0000
     1.0000   1.0000   1.0000   1.0000   1.0000   1.0000   1.0000   1.0000
     1.0000   1.0000   1.0000   1.0000   1.0000   1.0000   1.0000   1.0000
     1.0000   1.0000   1.0000   1.0000   1.0000   1.0000   1.0000   1.0000
     1.0000   1.0000   1.0000   1.0000   1.0000   1.0000   1.0000   1.0000
     1.0000   1.0000   1.0000   1.0000   1.0000   1.0000   1.0000   1.0000
     1.0000   1.0000   1.0000   1.0000   1.0000   1.0000   1.0000   1.0000
     1.0000   1.0000   1.0000   1.0000   1.0000   1.0000   1.0000   0.0000
     0.0000   0.0000   0.0000   0.0000   0.0000   0.0000   0.0000   0.0000
     0.0000   0.0000   0.0000   0.0000   0.0000   0.0000   0.0000   0.0000
     0.0000   0.0000   0.0000   0.0000   0.0000   0.0000   0.0000   0.0000

          k = 0.3333 0.3333 0.3333 ( 24303 PWs)   bands (ev):

    -7.9061  -7.1982  -6.9838  -6.9838  -6.2850  -6.2265  -6.2265  -5.4553
    -4.1932  -4.0357  -4.0357  -3.5226  -3.3884  -3.3884  -3.3157  -3.3157
    -3.3141  -2.9062  -2.6715  -2.6715  -1.9480  -1.9060  -1.9060  -1.5390
    -1.4524  -1.4524  -1.4051  -1.4051  -1.3497  -1.2259  -1.2259   0.0669
     0.8465   0.8465   0.9856   0.9921   0.9921   1.3055   1.8327   1.8327
     1.8651   1.9133   2.0085   2.0085   2.5955   2.5955   2.6004   2.6960
     2.7254   2.7254   3.1462   3.1462   3.5367   4.0736   4.2924   4.2924
     4.8135   4.9326   4.9326   4.9489   5.0868   5.0868   5.1496   5.3103
     5.3103   5.4023   5.5050   5.5050   5.5865   5.5865   5.6388   6.3851
     6.7281   6.7281   6.9478   6.9868   6.9868   7.0030   7.0827   7.0827
     7.1935   7.1935   7.2428   7.2588   7.2621   7.2621   7.3602   7.3602
     7.3633   7.4935   7.7313   7.7313   7.9227   7.9227   7.9550   7.9915
     8.1825   8.1825   8.2851   8.3029   8.3029   8.4278   8.4580   8.4580
     8.6797   8.6797   8.8634   9.0584   9.1079   9.5343   9.5343   9.7894
     9.7894  10.4886  10.4886  10.4984  10.5896  10.9459  10.9459  11.2622
    11.2622  11.2855  11.5053  11.6666  11.6666  13.4221  15.2095  15.2095
    18.1498  18.2447  18.2447  18.4640  18.6458  18.6458  19.2318  19.4001
    19.4001  19.5422  19.5422  19.5761  19.6220  19.6220  19.6654  19.7440
    19.7440  19.8654  19.9220  19.9220  20.0051  20.0052  20.0232  20.1559

     occupation numbers 
     1.0000   1.0000   1.0000   1.0000   1.0000   1.0000   1.0000   1.0000
     1.0000   1.0000   1.0000   1.0000   1.0000   1.0000   1.0000   1.0000
     1.0000   1.0000   1.0000   1.0000   1.0000   1.0000   1.0000   1.0000
     1.0000   1.0000   1.0000   1.0000   1.0000   1.0000   1.0000   1.0000
     1.0000   1.0000   1.0000   1.0000   1.0000   1.0000   1.0000   1.0000
     1.0000   1.0000   1.0000   1.0000   1.0000   1.0000   1.0000   1.0000
     1.0000   1.0000   1.0000   1.0000   1.0000   1.0000   1.0000   1.0000
     1.0000   1.0000   1.0000   1.0000   1.0000   1.0000   1.0000   1.0000
     1.0000   1.0000   1.0000   1.0000   1.0000   1.0000   1.0000   1.0000
     1.0000   1.0000   1.0000   1.0000   1.0000   1.0000   1.0000   1.0000
     1.0000   1.0000   1.0000   1.0000   1.0000   1.0000   1.0000   1.0000
     1.0000   1.0000   1.0000   1.0000   1.0000   1.0000   1.0000   1.0000
     1.0000   1.0000   1.0000   1.0000   1.0000   1.0000   1.0000   1.0000
     1.0000   1.0000   1.0000   1.0000   1.0000   1.0000   1.0000   1.0000
     1.0000   1.0000   1.0000   1.0000   1.0000   1.0000   1.0000   1.0000
     1.0000   1.0000   1.0000   1.0000   1.0000   1.0000   0.0000   0.0000
     0.0000   0.0000   0.0000   0.0000   0.0000   0.0000   0.0000   0.0000
     0.0000   0.0000   0.0000   0.0000   0.0000   0.0000   0.0000   0.0000
     0.0000   0.0000   0.0000   0.0000   0.0000   0.0000   0.0000   0.0000

          k =-0.3333 0.0000 0.3333 ( 24236 PWs)   bands (ev):

    -8.0922  -7.4929  -7.1051  -6.5549  -5.9872  -5.6778  -5.3681  -5.0305
    -4.9333  -4.7727  -4.5166  -4.2915  -4.2273  -4.0485  -3.5920  -3.3328
    -2.7682  -2.4034  -2.3628  -2.2975  -2.1940  -2.1651  -2.1049  -1.6571
    -1.6426  -1.3141  -1.1187  -0.9823  -0.6002   0.0102   0.0780   0.1190
     0.2619   0.4858   0.8766   1.0587   1.2129   1.2286   1.2480   1.3990
     1.4772   1.5785   1.8572   1.9091   2.1341   2.5833   2.6818   2.8618
     2.9468   3.5106   3.6568   3.7089   3.7858   3.8877   4.0257   4.1121
     4.1775   4.3938   4.6281   4.8124   4.9673   5.0232   5.1860   5.2470
     5.4135   5.5641   5.6480   5.6812   5.7923   6.0370   6.0811   6.1298
     6.1732   6.2178   6.2649   6.4387   6.4768   6.6147   6.6398   6.8214
     6.8912   6.9606   7.0087   7.0933   7.2253   7.3927   7.5054   7.6790
     7.8505   7.9004   7.9665   8.0752   8.1758   8.2139   8.2517   8.2820
     8.3718   8.4332   8.5385   8.5908   8.7268   8.7467   8.8885   8.9612
     9.0742   9.1387   9.2298   9.3182   9.4516   9.4939   9.5107   9.6547
     9.7302   9.7444   9.9321  10.0267  10.0706  10.0974  10.4969  10.8786
    10.9792  11.1599  11.5010  11.7615  12.2478  13.7677  14.8242  15.1148
    18.0490  18.2066  18.2569  18.3094  18.3711  18.7941  18.9247  19.1011
    19.1517  19.2791  19.3587  19.4836  19.7010  19.8464  19.8862  20.0294
    20.2417  20.3622  20.4262  20.5146  20.5622  20.5898  20.6357  20.6779

     occupation numbers 
     1.0000   1.0000   1.0000   1.0000   1.0000   1.0000   1.0000   1.0000
     1.0000   1.0000   1.0000   1.0000   1.0000   1.0000   1.0000   1.0000
     1.0000   1.0000   1.0000   1.0000   1.0000   1.0000   1.0000   1.0000
     1.0000   1.0000   1.0000   1.0000   1.0000   1.0000   1.0000   1.0000
     1.0000   1.0000   1.0000   1.0000   1.0000   1.0000   1.0000   1.0000
     1.0000   1.0000   1.0000   1.0000   1.0000   1.0000   1.0000   1.0000
     1.0000   1.0000   1.0000   1.0000   1.0000   1.0000   1.0000   1.0000
     1.0000   1.0000   1.0000   1.0000   1.0000   1.0000   1.0000   1.0000
     1.0000   1.0000   1.0000   1.0000   1.0000   1.0000   1.0000   1.0000
     1.0000   1.0000   1.0000   1.0000   1.0000   1.0000   1.0000   1.0000
     1.0000   1.0000   1.0000   1.0000   1.0000   1.0000   1.0000   1.0000
     1.0000   1.0000   1.0000   1.0000   1.0000   1.0000   1.0000   1.0000
     1.0000   1.0000   1.0000   1.0000   1.0000   1.0000   1.0000   1.0000
     1.0000   1.0000   1.0000   1.0000   1.0000   1.0000   1.0000   1.0000
     1.0000   1.0000   1.0000   1.0000   1.0000   1.0000   1.0000   1.0000
     1.0000   1.0000   1.0000   1.0000   1.0000   1.0000   1.0000   0.5000
     0.0000   0.0000   0.0000   0.0000   0.0000   0.0000   0.0000   0.0000
     0.0000   0.0000   0.0000   0.0000   0.0000   0.0000   0.0000   0.0000
     0.0000   0.0000   0.0000   0.0000   0.0000   0.0000   0.0000   0.0000

          k = 0.3333-0.3333 0.3333 ( 24303 PWs)   bands (ev):

    -7.8795  -7.3430  -6.9842  -6.8265  -6.4653  -6.2257  -5.9863  -5.4899
    -4.4732  -4.0363  -3.9353  -3.7137  -3.4176  -3.3587  -3.3150  -3.2289
    -3.0780  -2.8866  -2.6899  -2.4280  -2.0651  -1.8884  -1.8532  -1.7177
    -1.4860  -1.4633  -1.4344  -1.3605  -1.3594  -1.2592  -1.1852  -0.0531
     0.7580   0.8662   0.9578   0.9981   1.0644   1.4222   1.7484   1.7789
     1.8556   1.9461   2.0384   2.2367   2.5819   2.6144   2.6851   2.7026
     2.7165   2.7777   2.9203   3.1752   3.5096   3.9999   4.2387   4.3040
     4.8303   4.8336   4.8540   5.0094   5.0289   5.0629   5.1922   5.2510
     5.2763   5.4332   5.4391   5.5032   5.6853   5.7750   5.8224   6.4695
     6.7140   6.7653   6.9227   6.9270   6.9686   7.0497   7.0692   7.0911
     7.1615   7.1741   7.2256   7.2604   7.2634   7.3208   7.3353   7.3534
     7.3710   7.4648   7.7336   7.7385   7.8293   7.9223   7.9481   7.9578
     8.1321   8.1539   8.2623   8.2851   8.3576   8.3951   8.4092   8.4797
     8.7000   8.7237   8.9607   8.9904   9.1169   9.5341   9.5828   9.7007
     9.8713  10.4058  10.5118  10.5139  10.5565  10.9299  10.9436  11.2050
    11.2271  11.2841  11.4635  11.7272  11.7327  13.7916  14.8942  15.2026
    18.1105  18.2616  18.3409  18.5388  18.6546  18.7256  19.2052  19.3915
    19.4394  19.5101  19.5340  19.5511  19.6075  19.6286  19.6615  19.7208
    19.7448  19.7940  19.9128  19.9256  19.9842  19.9925  20.0437  20.1526

     occupation numbers 
     1.0000   1.0000   1.0000   1.0000   1.0000   1.0000   1.0000   1.0000
     1.0000   1.0000   1.0000   1.0000   1.0000   1.0000   1.0000   1.0000
     1.0000   1.0000   1.0000   1.0000   1.0000   1.0000   1.0000   1.0000
     1.0000   1.0000   1.0000   1.0000   1.0000   1.0000   1.0000   1.0000
     1.0000   1.0000   1.0000   1.0000   1.0000   1.0000   1.0000   1.0000
     1.0000   1.0000   1.0000   1.0000   1.0000   1.0000   1.0000   1.0000
     1.0000   1.0000   1.0000   1.0000   1.0000   1.0000   1.0000   1.0000
     1.0000   1.0000   1.0000   1.0000   1.0000   1.0000   1.0000   1.0000
     1.0000   1.0000   1.0000   1.0000   1.0000   1.0000   1.0000   1.0000
     1.0000   1.0000   1.0000   1.0000   1.0000   1.0000   1.0000   1.0000
     1.0000   1.0000   1.0000   1.0000   1.0000   1.0000   1.0000   1.0000
     1.0000   1.0000   1.0000   1.0000   1.0000   1.0000   1.0000   1.0000
     1.0000   1.0000   1.0000   1.0000   1.0000   1.0000   1.0000   1.0000
     1.0000   1.0000   1.0000   1.0000   1.0000   1.0000   1.0000   1.0000
     1.0000   1.0000   1.0000   1.0000   1.0000   1.0000   1.0000   1.0000
     1.0000   1.0000   1.0000   1.0000   1.0000   1.0000   1.0000   0.0000
     0.0000   0.0000   0.0000   0.0000   0.0000   0.0000   0.0000   0.0000
     0.0000   0.0000   0.0000   0.0000   0.0000   0.0000   0.0000   0.0000
     0.0000   0.0000   0.0000   0.0000   0.0000   0.0000   0.0000   0.0000

 ------ SPIN DOWN ----------


          k = 0.0000 0.0000 0.0000 ( 24207 PWs)   bands (ev):

    -8.5561  -6.9330  -6.2827  -6.2827  -6.1719  -6.1719  -5.8849  -4.9243
    -4.1413  -4.1413  -4.1093  -4.1093  -4.0299  -4.0299  -4.0176  -3.9441
    -3.8791  -3.8791  -3.3642  -2.9669  -2.6804  -2.6804  -2.0974  -0.3787
    -0.3787  -0.3554  -0.3236  -0.1069   0.1641   0.1641   0.2729   0.2729
     0.3487   0.5871   0.8085   0.8085   0.9584   0.9584   0.9750   1.0134
     1.0134   1.0229   1.3244   1.3244   3.0571   3.9128   3.9128   4.0298
     4.1921   4.1940   4.1940   4.2237   4.2401   4.2401   4.4009   4.4009
     4.4578   4.4578   4.5549   4.6319   4.6319   4.6332   4.6388   4.7362
     4.7362   4.8670   4.9267   4.9267   5.0349   5.1906   5.1906   5.2612
     5.3174   5.3174   5.3539   5.3847   5.3847   6.0032   6.0032   6.0346
     6.5977   6.5977   6.6925   6.9732   7.0002   7.0002   7.5181   8.3038
     8.3038   8.3657   8.4309   8.4309   8.6162   8.6162   8.7558   8.7780
     8.7780   8.7850   8.8365   8.8365   8.8568   9.2269   9.2339   9.2339
     9.6539   9.6539   9.8524   9.8659   9.8745   9.8745   9.8887   9.9301
     9.9301   9.9425   9.9625   9.9625  10.0557  10.0557  10.2362  10.2362
    10.2647  11.0691  12.2820  12.4310  12.4310  13.9568  15.2848  15.2848
    17.2992  17.3308  17.3308  17.4822  17.5239  17.5239  17.8062  17.8817
    17.8817  17.9754  17.9754  18.3435  18.8978  18.8978  18.9306  20.6199
    20.7574  20.7574  20.8022  20.8835  20.8835  20.9660  20.9661  20.9846

     occupation numbers 
     1.0000   1.0000   1.0000   1.0000   1.0000   1.0000   1.0000   1.0000
     1.0000   1.0000   1.0000   1.0000   1.0000   1.0000   1.0000   1.0000
     1.0000   1.0000   1.0000   1.0000   1.0000   1.0000   1.0000   1.0000
     1.0000   1.0000   1.0000   1.0000   1.0000   1.0000   1.0000   1.0000
     1.0000   1.0000   1.0000   1.0000   1.0000   1.0000   1.0000   1.0000
     1.0000   1.0000   1.0000   1.0000   1.0000   1.0000   1.0000   1.0000
     1.0000   1.0000   1.0000   1.0000   1.0000   1.0000   1.0000   1.0000
     1.0000   1.0000   1.0000   1.0000   1.0000   1.0000   1.0000   1.0000
     1.0000   1.0000   1.0000   1.0000   1.0000   1.0000   1.0000   1.0000
     1.0000   1.0000   1.0000   1.0000   1.0000   1.0000   1.0000   1.0000
     1.0000   1.0000   1.0000   1.0000   1.0000   1.0000   1.0000   1.0000
     1.0000   1.0000   1.0000   1.0000   1.0000   1.0000   1.0000   1.0000
     1.0000   1.0000   1.0000   1.0000   1.0000   1.0000   1.0000   1.0000
     1.0000   1.0000   1.0000   1.0000   1.0000   1.0000   1.0000   1.0000
     1.0000   1.0000   1.0000   1.0000   1.0000   1.0000   1.0000   1.0000
     1.0000   1.0000   1.0000   1.0000   1.0000   1.0000   0.0000   0.0000
     0.0000   0.0000   0.0000   0.0000   0.0000   0.0000   0.0000   0.0000
     0.0000   0.0000   0.0000   0.0000   0.0000   0.0000   0.0000   0.0000
     0.0000   0.0000   0.0000   0.0000   0.0000   0.0000   0.0000   0.0000

          k = 0.0000 0.0000 0.3333 ( 24280 PWs)   bands (ev):

    -8.3242  -7.5567  -6.5459  -6.0372  -5.9309  -5.8214  -5.4909  -5.2968
    -5.1783  -4.9809  -4.5116  -4.1218  -3.8157  -3.7930  -3.6878  -3.4381
    -3.2107  -3.1521  -2.9308  -2.6007  -2.5086  -2.3905  -2.3217  -1.7721
    -0.8344  -0.6959  -0.5871  -0.3441   0.1790   0.2700   0.3556   0.3964
     0.4729   0.5551   0.5713   0.6591   0.7245   0.7455   0.9783   1.4761
     1.9898   2.0114   2.1492   2.2310   2.4135   2.4795   2.4834   2.7439
     2.9496   3.0001   3.1659   3.1672   3.8941   3.9733   4.0509   4.0629
     4.2898   4.3698   4.5106   4.5522   5.0840   5.1096   5.1421   5.2010
     5.2051   5.5947   5.6147   5.7146   5.7400   6.0666   6.1088   6.1820
     6.1868   6.3233   6.3987   6.4544   6.5010   6.6128   6.6240   6.7486
     6.7560   6.8837   6.9032   6.9325   7.1419   7.1581   7.1810   7.2589
     7.4152   7.4730   7.6730   7.7728   7.8270   8.0505   8.1452   8.2739
     8.2984   8.4396   8.6763   8.7082   8.7658   9.0996   9.1896   9.3498
     9.3773   9.6289   9.6549   9.7117   9.7763   9.9163   9.9330   9.9496
     9.9652  10.0113  10.1050  10.1145  10.1693  10.2659  10.2703  10.3580
    10.3693  11.3726  11.7056  11.7217  12.0386  13.7061  14.9772  15.1525
    17.1913  17.2960  17.9500  18.3164  18.3527  18.4870  18.5072  18.6120
    18.8232  18.8333  18.9792  19.0802  19.2078  19.8294  19.8613  20.4903
    20.6644  20.6878  20.7864  20.7896  20.8253  20.8653  20.9067  20.9436

     occupation numbers 
     1.0000   1.0000   1.0000   1.0000   1.0000   1.0000   1.0000   1.0000
     1.0000   1.0000   1.0000   1.0000   1.0000   1.0000   1.0000   1.0000
     1.0000   1.0000   1.0000   1.0000   1.0000   1.0000   1.0000   1.0000
     1.0000   1.0000   1.0000   1.0000   1.0000   1.0000   1.0000   1.0000
     1.0000   1.0000   1.0000   1.0000   1.0000   1.0000   1.0000   1.0000
     1.0000   1.0000   1.0000   1.0000   1.0000   1.0000   1.0000   1.0000
     1.0000   1.0000   1.0000   1.0000   1.0000   1.0000   1.0000   1.0000
     1.0000   1.0000   1.0000   1.0000   1.0000   1.0000   1.0000   1.0000
     1.0000   1.0000   1.0000   1.0000   1.0000   1.0000   1.0000   1.0000
     1.0000   1.0000   1.0000   1.0000   1.0000   1.0000   1.0000   1.0000
     1.0000   1.0000   1.0000   1.0000   1.0000   1.0000   1.0000   1.0000
     1.0000   1.0000   1.0000   1.0000   1.0000   1.0000   1.0000   1.0000
     1.0000   1.0000   1.0000   1.0000   1.0000   1.0000   1.0000   1.0000
     1.0000   1.0000   1.0000   1.0000   1.0000   1.0000   1.0000   1.0000
     1.0000   1.0000   1.0000   1.0000   1.0000   1.0000   1.0000   1.0000
     1.0000   1.0000   1.0000   1.0000   1.0000   1.0000   1.0000   0.0000
     0.0000   0.0000   0.0000   0.0000   0.0000   0.0000   0.0000   0.0000
     0.0000   0.0000   0.0000   0.0000   0.0000   0.0000   0.0000   0.0000
     0.0000   0.0000   0.0000   0.0000   0.0000   0.0000   0.0000   0.0000

          k = 0.0000 0.3333 0.3333 ( 24236 PWs)   bands (ev):

    -8.1060  -7.3727  -7.2325  -6.5670  -5.9525  -5.6730  -5.3236  -5.0166
    -4.9960  -4.8441  -4.4930  -4.2621  -4.2247  -3.9398  -3.5365  -3.5093
    -2.7669  -2.3769  -2.3275  -2.3228  -2.2028  -2.1886  -2.0482  -1.8892
    -1.4974  -1.3145  -1.0962  -0.9220  -0.5418  -0.0194   0.0619   0.1235
     0.1803   0.4782   0.6901   1.1839   1.1997   1.3057   1.3779   1.4011
     1.4561   1.4566   1.9442   2.0651   2.1336   2.4056   2.7285   2.8260
     2.9676   3.5171   3.6538   3.7027   3.7811   3.8143   3.9724   4.0360
     4.1134   4.5518   4.6763   4.8263   5.0272   5.0505   5.1429   5.2999
     5.3523   5.5889   5.6509   5.6889   5.7482   5.9814   6.0276   6.0779
     6.1388   6.2305   6.2705   6.4935   6.5402   6.6000   6.6512   6.8572
     6.9111   6.9433   7.0380   7.0414   7.2321   7.2899   7.4986   7.7077
     7.9320   7.9462   8.0739   8.0929   8.1166   8.2198   8.2613   8.3327
     8.3372   8.4015   8.5358   8.6302   8.7005   8.7066   8.8416   8.8897
     9.0676   9.1972   9.2390   9.3100   9.4644   9.4795   9.5747   9.6333
     9.7009   9.7935   9.9041  10.0446  10.0465  10.1190  10.4415  10.7582
    11.0181  11.2068  11.5474  11.8652  12.2240  13.5163  14.9135  15.2160
    18.0758  18.1961  18.2319  18.3034  18.3558  18.8300  18.8550  18.9873
    19.1804  19.2304  19.4430  19.4746  19.6980  19.8093  19.9741  20.0199
    20.1975  20.4559  20.4815  20.5057  20.5659  20.5952  20.6133  20.6510

     occupation numbers 
     1.0000   1.0000   1.0000   1.0000   1.0000   1.0000   1.0000   1.0000
     1.0000   1.0000   1.0000   1.0000   1.0000   1.0000   1.0000   1.0000
     1.0000   1.0000   1.0000   1.0000   1.0000   1.0000   1.0000   1.0000
     1.0000   1.0000   1.0000   1.0000   1.0000   1.0000   1.0000   1.0000
     1.0000   1.0000   1.0000   1.0000   1.0000   1.0000   1.0000   1.0000
     1.0000   1.0000   1.0000   1.0000   1.0000   1.0000   1.0000   1.0000
     1.0000   1.0000   1.0000   1.0000   1.0000   1.0000   1.0000   1.0000
     1.0000   1.0000   1.0000   1.0000   1.0000   1.0000   1.0000   1.0000
     1.0000   1.0000   1.0000   1.0000   1.0000   1.0000   1.0000   1.0000
     1.0000   1.0000   1.0000   1.0000   1.0000   1.0000   1.0000   1.0000
     1.0000   1.0000   1.0000   1.0000   1.0000   1.0000   1.0000   1.0000
     1.0000   1.0000   1.0000   1.0000   1.0000   1.0000   1.0000   1.0000
     1.0000   1.0000   1.0000   1.0000   1.0000   1.0000   1.0000   1.0000
     1.0000   1.0000   1.0000   1.0000   1.0000   1.0000   1.0000   1.0000
     1.0000   1.0000   1.0000   1.0000   1.0000   1.0000   1.0000   1.0000
     1.0000   1.0000   1.0000   1.0000   1.0000   1.0000   1.0000   0.0000
     0.0000   0.0000   0.0000   0.0000   0.0000   0.0000   0.0000   0.0000
     0.0000   0.0000   0.0000   0.0000   0.0000   0.0000   0.0000   0.0000
     0.0000   0.0000   0.0000   0.0000   0.0000   0.0000   0.0000   0.0000

          k = 0.3333 0.3333 0.3333 ( 24303 PWs)   bands (ev):

    -7.9060  -7.1980  -6.9840  -6.9840  -6.2849  -6.2267  -6.2267  -5.4553
    -4.1929  -4.0358  -4.0358  -3.5224  -3.3886  -3.3886  -3.3159  -3.3159
    -3.3142  -2.9062  -2.6716  -2.6716  -1.9481  -1.9062  -1.9062  -1.5391
    -1.4525  -1.4525  -1.4051  -1.4051  -1.3498  -1.2259  -1.2259   0.0669
     0.8464   0.8464   0.9855   0.9920   0.9920   1.3054   1.8326   1.8326
     1.8650   1.9133   2.0084   2.0084   2.5954   2.5954   2.6003   2.6959
     2.7253   2.7253   3.1461   3.1461   3.5366   4.0735   4.2923   4.2923
     4.8134   4.9325   4.9325   4.9488   5.0868   5.0868   5.1496   5.3102
     5.3102   5.4022   5.5049   5.5049   5.5866   5.5866   5.6388   6.3851
     6.7282   6.7282   6.9478   6.9868   6.9868   7.0030   7.0827   7.0827
     7.1935   7.1935   7.2427   7.2588   7.2620   7.2620   7.3601   7.3601
     7.3633   7.4935   7.7312   7.7312   7.9227   7.9227   7.9550   7.9914
     8.1825   8.1825   8.2851   8.3028   8.3028   8.4278   8.4580   8.4580
     8.6797   8.6797   8.8636   9.0584   9.1079   9.5344   9.5344   9.7894
     9.7894  10.4886  10.4886  10.4984  10.5897  10.9460  10.9460  11.2622
    11.2622  11.2855  11.5055  11.6666  11.6666  13.4229  15.2094  15.2094
    18.1499  18.2446  18.2446  18.4640  18.6458  18.6458  19.2320  19.4001
    19.4001  19.5422  19.5422  19.5761  19.6220  19.6220  19.6654  19.7440
    19.7440  19.8654  19.9221  19.9221  20.0049  20.0051  20.0232  20.1560

     occupation numbers 
     1.0000   1.0000   1.0000   1.0000   1.0000   1.0000   1.0000   1.0000
     1.0000   1.0000   1.0000   1.0000   1.0000   1.0000   1.0000   1.0000
     1.0000   1.0000   1.0000   1.0000   1.0000   1.0000   1.0000   1.0000
     1.0000   1.0000   1.0000   1.0000   1.0000   1.0000   1.0000   1.0000
     1.0000   1.0000   1.0000   1.0000   1.0000   1.0000   1.0000   1.0000
     1.0000   1.0000   1.0000   1.0000   1.0000   1.0000   1.0000   1.0000
     1.0000   1.0000   1.0000   1.0000   1.0000   1.0000   1.0000   1.0000
     1.0000   1.0000   1.0000   1.0000   1.0000   1.0000   1.0000   1.0000
     1.0000   1.0000   1.0000   1.0000   1.0000   1.0000   1.0000   1.0000
     1.0000   1.0000   1.0000   1.0000   1.0000   1.0000   1.0000   1.0000
     1.0000   1.0000   1.0000   1.0000   1.0000   1.0000   1.0000   1.0000
     1.0000   1.0000   1.0000   1.0000   1.0000   1.0000   1.0000   1.0000
     1.0000   1.0000   1.0000   1.0000   1.0000   1.0000   1.0000   1.0000
     1.0000   1.0000   1.0000   1.0000   1.0000   1.0000   1.0000   1.0000
     1.0000   1.0000   1.0000   1.0000   1.0000   1.0000   1.0000   1.0000
     1.0000   1.0000   1.0000   1.0000   1.0000   1.0000   0.0000   0.0000
     0.0000   0.0000   0.0000   0.0000   0.0000   0.0000   0.0000   0.0000
     0.0000   0.0000   0.0000   0.0000   0.0000   0.0000   0.0000   0.0000
     0.0000   0.0000   0.0000   0.0000   0.0000   0.0000   0.0000   0.0000

          k =-0.3333 0.0000 0.3333 ( 24236 PWs)   bands (ev):

    -8.0922  -7.4928  -7.1053  -6.5548  -5.9871  -5.6780  -5.3680  -5.0306
    -4.9334  -4.7728  -4.5166  -4.2916  -4.2274  -4.0486  -3.5921  -3.3329
    -2.7680  -2.4036  -2.3629  -2.2976  -2.1941  -2.1652  -2.1050  -1.6572
    -1.6427  -1.3142  -1.1187  -0.9824  -0.6002   0.0100   0.0779   0.1188
     0.2619   0.4857   0.8765   1.0586   1.2128   1.2285   1.2479   1.3989
     1.4771   1.5784   1.8572   1.9090   2.1341   2.5832   2.6818   2.8618
     2.9467   3.5106   3.6567   3.7088   3.7858   3.8877   4.0256   4.1121
     4.1774   4.3938   4.6281   4.8123   4.9672   5.0233   5.1860   5.2470
     5.4135   5.5641   5.6480   5.6812   5.7922   6.0370   6.0810   6.1298
     6.1731   6.2178   6.2648   6.4387   6.4767   6.6146   6.6397   6.8214
     6.8912   6.9605   7.0087   7.0932   7.2252   7.3927   7.5054   7.6790
     7.8504   7.9004   7.9664   8.0752   8.1757   8.2139   8.2517   8.2820
     8.3717   8.4332   8.5385   8.5907   8.7268   8.7467   8.8885   8.9612
     9.0742   9.1387   9.2298   9.3182   9.4517   9.4939   9.5107   9.6547
     9.7302   9.7444   9.9321  10.0268  10.0706  10.0974  10.4969  10.8786
    10.9794  11.1600  11.5011  11.7619  12.2477  13.7683  14.8241  15.1147
    18.0490  18.2066  18.2569  18.3094  18.3711  18.7942  18.9248  19.1012
    19.1517  19.2792  19.3587  19.4835  19.7010  19.8464  19.8862  20.0294
    20.2419  20.3622  20.4263  20.5147  20.5623  20.5899  20.6357  20.6780

     occupation numbers 
     1.0000   1.0000   1.0000   1.0000   1.0000   1.0000   1.0000   1.0000
     1.0000   1.0000   1.0000   1.0000   1.0000   1.0000   1.0000   1.0000
     1.0000   1.0000   1.0000   1.0000   1.0000   1.0000   1.0000   1.0000
     1.0000   1.0000   1.0000   1.0000   1.0000   1.0000   1.0000   1.0000
     1.0000   1.0000   1.0000   1.0000   1.0000   1.0000   1.0000   1.0000
     1.0000   1.0000   1.0000   1.0000   1.0000   1.0000   1.0000   1.0000
     1.0000   1.0000   1.0000   1.0000   1.0000   1.0000   1.0000   1.0000
     1.0000   1.0000   1.0000   1.0000   1.0000   1.0000   1.0000   1.0000
     1.0000   1.0000   1.0000   1.0000   1.0000   1.0000   1.0000   1.0000
     1.0000   1.0000   1.0000   1.0000   1.0000   1.0000   1.0000   1.0000
     1.0000   1.0000   1.0000   1.0000   1.0000   1.0000   1.0000   1.0000
     1.0000   1.0000   1.0000   1.0000   1.0000   1.0000   1.0000   1.0000
     1.0000   1.0000   1.0000   1.0000   1.0000   1.0000   1.0000   1.0000
     1.0000   1.0000   1.0000   1.0000   1.0000   1.0000   1.0000   1.0000
     1.0000   1.0000   1.0000   1.0000   1.0000   1.0000   1.0000   1.0000
     1.0000   1.0000   1.0000   1.0000   1.0000   1.0000   1.0000   0.5000
     0.0000   0.0000   0.0000   0.0000   0.0000   0.0000   0.0000   0.0000
     0.0000   0.0000   0.0000   0.0000   0.0000   0.0000   0.0000   0.0000
     0.0000   0.0000   0.0000   0.0000   0.0000   0.0000   0.0000   0.0000

          k = 0.3333-0.3333 0.3333 ( 24303 PWs)   bands (ev):

    -7.8794  -7.3429  -6.9843  -6.8267  -6.4653  -6.2258  -5.9864  -5.4899
    -4.4730  -4.0365  -3.9354  -3.7137  -3.4178  -3.3588  -3.3151  -3.2290
    -3.0782  -2.8866  -2.6900  -2.4280  -2.0651  -1.8886  -1.8533  -1.7178
    -1.4861  -1.4635  -1.4345  -1.3606  -1.3595  -1.2593  -1.1852  -0.0531
     0.7579   0.8661   0.9577   0.9980   1.0642   1.4221   1.7483   1.7788
     1.8555   1.9461   2.0384   2.2367   2.5818   2.6143   2.6850   2.7025
     2.7164   2.7776   2.9202   3.1751   3.5095   3.9998   4.2387   4.3039
     4.8303   4.8337   4.8540   5.0093   5.0288   5.0628   5.1922   5.2510
     5.2763   5.4331   5.4390   5.5032   5.6852   5.7749   5.8224   6.4695
     6.7141   6.7653   6.9227   6.9270   6.9686   7.0497   7.0692   7.0911
     7.1615   7.1740   7.2256   7.2603   7.2633   7.3208   7.3353   7.3533
     7.3710   7.4648   7.7336   7.7385   7.8293   7.9223   7.9480   7.9578
     8.1321   8.1539   8.2623   8.2851   8.3576   8.3951   8.4092   8.4797
     8.7000   8.7237   8.9606   8.9904   9.1169   9.5341   9.5828   9.7009
     9.8714  10.4058  10.5119  10.5139  10.5566  10.9300  10.9437  11.2051
    11.2271  11.2842  11.4637  11.7272  11.7326  13.7924  14.8941  15.2025
    18.1105  18.2615  18.3409  18.5389  18.6546  18.7256  19.2054  19.3917
    19.4394  19.5101  19.5339  19.5511  19.6075  19.6286  19.6615  19.7208
    19.7448  19.7940  19.9128  19.9257  19.9842  19.9925  20.0436  20.1526

     occupation numbers 
     1.0000   1.0000   1.0000   1.0000   1.0000   1.0000   1.0000   1.0000
     1.0000   1.0000   1.0000   1.0000   1.0000   1.0000   1.0000   1.0000
     1.0000   1.0000   1.0000   1.0000   1.0000   1.0000   1.0000   1.0000
     1.0000   1.0000   1.0000   1.0000   1.0000   1.0000   1.0000   1.0000
     1.0000   1.0000   1.0000   1.0000   1.0000   1.0000   1.0000   1.0000
     1.0000   1.0000   1.0000   1.0000   1.0000   1.0000   1.0000   1.0000
     1.0000   1.0000   1.0000   1.0000   1.0000   1.0000   1.0000   1.0000
     1.0000   1.0000   1.0000   1.0000   1.0000   1.0000   1.0000   1.0000
     1.0000   1.0000   1.0000   1.0000   1.0000   1.0000   1.0000   1.0000
     1.0000   1.0000   1.0000   1.0000   1.0000   1.0000   1.0000   1.0000
     1.0000   1.0000   1.0000   1.0000   1.0000   1.0000   1.0000   1.0000
     1.0000   1.0000   1.0000   1.0000   1.0000   1.0000   1.0000   1.0000
     1.0000   1.0000   1.0000   1.0000   1.0000   1.0000   1.0000   1.0000
     1.0000   1.0000   1.0000   1.0000   1.0000   1.0000   1.0000   1.0000
     1.0000   1.0000   1.0000   1.0000   1.0000   1.0000   1.0000   1.0000
     1.0000   1.0000   1.0000   1.0000   1.0000   1.0000   1.0000   0.0000
     0.0000   0.0000   0.0000   0.0000   0.0000   0.0000   0.0000   0.0000
     0.0000   0.0000   0.0000   0.0000   0.0000   0.0000   0.0000   0.0000
     0.0000   0.0000   0.0000   0.0000   0.0000   0.0000   0.0000   0.0000

     the spin up/dw Fermi energies are    15.1167   15.1166 ev

!    total energy              =    -724.77750308 Ry
     Harris-Foulkes estimate   =    -724.77750268 Ry
     estimated scf accuracy    <       0.00000048 Ry

     The total energy is the sum of the following terms:

     one-electron contribution =     232.58747408 Ry
     hartree contribution      =      69.26522816 Ry
     xc contribution           =    -226.35392962 Ry
     ewald contribution        =    -800.27620275 Ry
     smearing contrib. (-TS)   =      -0.00007294 Ry

     total magnetization       =     0.00 Bohr mag/cell
     absolute magnetization    =     0.00 Bohr mag/cell

     convergence has been achieved in   9 iterations

     Writing output data file di.save
 
     init_run     :      1.28s CPU      1.65s WALL (       1 calls)
     electrons    :     24.45s CPU     24.86s WALL (       1 calls)

     Called by init_run:
     wfcinit      :      0.77s CPU      0.84s WALL (       1 calls)
     wfcinit:atom :      0.00s CPU      0.01s WALL (       2 calls)
     wfcinit:wfcr :      0.73s CPU      0.79s WALL (       2 calls)
     potinit      :      0.09s CPU      0.10s WALL (       1 calls)

     Called by electrons:
     c_bands      :     22.85s CPU     23.23s WALL (       9 calls)
     sum_band     :      1.08s CPU      1.10s WALL (       9 calls)
     v_of_rho     :      0.37s CPU      0.38s WALL (      10 calls)
     v_h          :      0.01s CPU      0.01s WALL (      10 calls)
     v_xc         :      0.36s CPU      0.37s WALL (      10 calls)
     mix_rho      :      0.06s CPU      0.06s WALL (       9 calls)

     Called by c_bands:
     init_us_2    :      0.17s CPU      0.18s WALL (      38 calls)
     cegterg      :     20.52s CPU     20.86s WALL (      18 calls)

     Called by sum_band:

     Called by *egterg:
     h_psi        :      8.35s CPU      8.46s WALL (     123 calls)
     g_psi        :      0.05s CPU      0.05s WALL (     103 calls)
     cdiaghg      :      8.64s CPU      8.69s WALL (     121 calls)
     cegterg:over :      1.60s CPU      1.60s WALL (     103 calls)
     cegterg:upda :      1.21s CPU      1.21s WALL (     103 calls)
     cegterg:last :      0.46s CPU      0.46s WALL (      18 calls)

     Called by h_psi:
     h_psi:pot    :      8.25s CPU      8.36s WALL (     123 calls)
     h_psi:calbec :      1.79s CPU      1.80s WALL (     123 calls)
     vloc_psi     :      4.60s CPU      4.68s WALL (     123 calls)
     add_vuspsi   :      1.86s CPU      1.88s WALL (     123 calls)

     General routines
     calbec       :      1.79s CPU      1.80s WALL (     123 calls)
     fft          :      0.11s CPU      0.33s WALL (     207 calls)
     fftw         :      4.92s CPU      4.91s WALL (   18340 calls)
 
     Parallel routines
     fft_scatter  :      1.47s CPU      1.45s WALL (   18547 calls)
 
     PWSCF        :    28.59s CPU        31.96s WALL

 
   This run was terminated on:  10:26:27  12May2020            

=------------------------------------------------------------------------------=
   JOB DONE.
=------------------------------------------------------------------------------=
