
     Program PWSCF v.6.1 (svn rev. 13369) starts on 12May2020 at 10:30:13 

     This program is part of the open-source Quantum ESPRESSO suite
     for quantum simulation of materials; please cite
         "P. Giannozzi et al., J. Phys.:Condens. Matter 21 395502 (2009);
          URL http://www.quantum-espresso.org", 
     in publications or presentations arising from this work. More details at
     http://www.quantum-espresso.org/quote

     Parallel version (MPI), running on    96 processors
     K-points division:     npool     =       6
     R & G space division:  proc/nbgrp/npool/nimage =      16
     Reading input from scf.in
Warning: card &IONS ignored
Warning: card / ignored

     Current dimensions of program PWSCF are:
     Max number of different atomic species (ntypx) = 10
     Max number of k-points (npk) =  40000
     Max angular momentum in pseudopotentials (lmaxx) =  3

     Subspace diagonalization in iterative solution of the eigenvalue problem:
     a serial algorithm will be used

 
     Parallelization info
     --------------------
     sticks:   dense  smooth     PW     G-vecs:    dense   smooth      PW
     Min         252     252     67                12125    12125    1669
     Max         254     254     68                12129    12129    1672
     Sum        4049    4049   1085               194039   194039   26745
 


     bravais-lattice index     =            1
     lattice parameter (alat)  =      13.4862  a.u.
     unit-cell volume          =    2452.8358 (a.u.)^3
     number of atoms/cell      =           63
     number of atomic types    =            2
     number of electrons       =       254.00
     number of Kohn-Sham states=          152
     kinetic-energy cutoff     =      70.0000  Ry
     charge density cutoff     =     280.0000  Ry
     convergence threshold     =      1.0E-06
     mixing beta               =       0.5000
     number of iterations used =            8  plain     mixing
     Exchange-correlation      = PBE ( 1  4  3  4 0 0)

     celldm(1)=  13.486197  celldm(2)=   0.000000  celldm(3)=   0.000000
     celldm(4)=   0.000000  celldm(5)=   0.000000  celldm(6)=   0.000000

     crystal axes: (cart. coord. in units of alat)
               a(1) = (   1.000000   0.000000   0.000000 )  
               a(2) = (   0.000000   1.000000   0.000000 )  
               a(3) = (   0.000000   0.000000   1.000000 )  

     reciprocal axes: (cart. coord. in units 2 pi/alat)
               b(1) = (  1.000000  0.000000  0.000000 )  
               b(2) = (  0.000000  1.000000  0.000000 )  
               b(3) = (  0.000000  0.000000  1.000000 )  


     PseudoPot. # 1 for C  read from file:
     /home/tjsmart/Pseudo/C_ONCV_PBE-1.0.upf
     MD5 check sum: 72b63e32b2fd29504de26a4901699f60
     Pseudo is Norm-conserving, Zval =  4.0
     Generated using ONCVPSP code by D. R. Hamann
     Using radial grid of 1248 points,  4 beta functions with: 
                l(1) =   0
                l(2) =   0
                l(3) =   1
                l(4) =   1

     PseudoPot. # 2 for N  read from file:
     /home/tjsmart/Pseudo/N_ONCV_PBE-1.0.upf
     MD5 check sum: 09890da6b2972017450f7114a6086fad
     Pseudo is Norm-conserving, Zval =  5.0
     Generated using ONCVPSP code by D. R. Hamann
     Using radial grid of 1058 points,  4 beta functions with: 
                l(1) =   0
                l(2) =   0
                l(3) =   1
                l(4) =   1

     atomic species   valence    mass     pseudopotential
        C              4.00    12.01110     C ( 1.00)
        N              5.00    14.00670     N ( 1.00)

     Starting magnetic structure 
     atomic species   magnetization
        C            0.500
        N            0.500

      6 Sym. Ops. (no inversion) found


                                    s                        frac. trans.

      isym =  1     identity                                     

 cryst.   s( 1) = (     1          0          0      )
                  (     0          1          0      )
                  (     0          0          1      )

 cart.    s( 1) = (  1.0000000  0.0000000  0.0000000 )
                  (  0.0000000  1.0000000  0.0000000 )
                  (  0.0000000  0.0000000  1.0000000 )


      isym =  2     120 deg rotation - cart. axis [-1,-1,-1]     

 cryst.   s( 2) = (     0          0          1      )
                  (     1          0          0      )
                  (     0          1          0      )

 cart.    s( 2) = (  0.0000000  1.0000000  0.0000000 )
                  (  0.0000000  0.0000000  1.0000000 )
                  (  1.0000000  0.0000000  0.0000000 )


      isym =  3     120 deg rotation - cart. axis [1,1,1]        

 cryst.   s( 3) = (     0          1          0      )
                  (     0          0          1      )
                  (     1          0          0      )

 cart.    s( 3) = (  0.0000000  0.0000000  1.0000000 )
                  (  1.0000000  0.0000000  0.0000000 )
                  (  0.0000000  1.0000000  0.0000000 )


      isym =  4     inv. 180 deg rotation - cart. axis [1,-1,0]  

 cryst.   s( 4) = (     0          1          0      )
                  (     1          0          0      )
                  (     0          0          1      )

 cart.    s( 4) = (  0.0000000  1.0000000  0.0000000 )
                  (  1.0000000  0.0000000  0.0000000 )
                  (  0.0000000  0.0000000  1.0000000 )


      isym =  5     inv. 180 deg rotation - cart. axis [-1,0,1]  

 cryst.   s( 5) = (     0          0          1      )
                  (     0          1          0      )
                  (     1          0          0      )

 cart.    s( 5) = (  0.0000000  0.0000000  1.0000000 )
                  (  0.0000000  1.0000000  0.0000000 )
                  (  1.0000000  0.0000000  0.0000000 )


      isym =  6     inv. 180 deg rotation - cart. axis [0,1,-1]  

 cryst.   s( 6) = (     1          0          0      )
                  (     0          0          1      )
                  (     0          1          0      )

 cart.    s( 6) = (  1.0000000  0.0000000  0.0000000 )
                  (  0.0000000  0.0000000  1.0000000 )
                  (  0.0000000  1.0000000  0.0000000 )


     point group C_3v (3m)  
     there are  3 classes
     the character table:

       E     2C3   3s_v 
A_1    1.00  1.00  1.00
A_2    1.00  1.00 -1.00
E      2.00 -1.00  0.00

     the symmetry operations in each class and the name of the first element:

     E        1
          identity                                               
     2C3      2    3
          120 deg rotation - cart. axis [-1,-1,-1]               
     3s_v     4    5    6
          inv. 180 deg rotation - cart. axis [1,-1,0]            

   Cartesian axes

     site n.     atom                  positions (alat units)
         1           C   tau(   1) = (   0.3757553   0.3757553   0.8736395  )
         2           C   tau(   2) = (   0.5001453   0.0002970   0.0002970  )
         3           C   tau(   3) = (   0.5000223  -0.0002305   0.5000223  )
         4           C   tau(   4) = (   0.0002970   0.5001453   0.0002970  )
         5           C   tau(   5) = (  -0.0002305   0.5000223   0.5000223  )
         6           C   tau(   6) = (  -0.0001163  -0.0001163  -0.0001163  )
         7           C   tau(   7) = (   0.0002970   0.0002970   0.5001453  )
         8           C   tau(   8) = (   0.2503244   0.2503244  -0.0010848  )
         9           C   tau(   9) = (   0.2509669   0.2509669   0.4954651  )
        10           C   tau(  10) = (   0.2502948   0.7490746   0.0009335  )
        11           C   tau(  11) = (   0.2519649   0.7481396   0.5018437  )
        12           C   tau(  12) = (   0.7490746   0.2502948   0.0009335  )
        13           C   tau(  13) = (   0.7481396   0.2519649   0.5018437  )
        14           C   tau(  14) = (   0.7495886   0.7495886  -0.0004886  )
        15           C   tau(  15) = (   0.5000223   0.5000223  -0.0002305  )
        16           C   tau(  16) = (   0.7488819   0.7488819   0.4985771  )
        17           C   tau(  17) = (   0.5018437   0.2519649   0.7481396  )
        18           C   tau(  18) = (   0.5018437   0.7481396   0.2519649  )
        19           C   tau(  19) = (   0.4985771   0.7488819   0.7488819  )
        20           C   tau(  20) = (  -0.0010848   0.2503244   0.2503244  )
        21           C   tau(  21) = (   0.0009335   0.2502948   0.7490746  )
        22           C   tau(  22) = (   0.0009335   0.7490746   0.2502948  )
        23           C   tau(  23) = (  -0.0004886   0.7495886   0.7495886  )
        24           C   tau(  24) = (   0.2509669   0.4954651   0.2509669  )
        25           C   tau(  25) = (   0.2519649   0.5018437   0.7481396  )
        26           C   tau(  26) = (   0.2503244  -0.0010848   0.2503244  )
        27           C   tau(  27) = (   0.2502948   0.0009335   0.7490746  )
        28           C   tau(  28) = (   0.7481396   0.5018437   0.2519649  )
        29           C   tau(  29) = (   0.7488819   0.4985771   0.7488819  )
        30           C   tau(  30) = (   0.4954651   0.2509669   0.2509669  )
        31           C   tau(  31) = (   0.7490746   0.0009335   0.2502948  )
        32           C   tau(  32) = (   0.6244835   0.8740965   0.6244835  )
        33           C   tau(  33) = (   0.6353798   0.3652385   0.6353798  )
        34           C   tau(  34) = (   0.3758036   0.8762106   0.8762106  )
        35           C   tau(  35) = (   0.3757553   0.8736395   0.3757553  )
        36           C   tau(  36) = (   0.8762106   0.3758036   0.8762106  )
        37           C   tau(  37) = (   0.8736395   0.3757553   0.3757553  )
        38           C   tau(  38) = (   0.8746125   0.8746125   0.8746125  )
        39           C   tau(  39) = (   0.8762106   0.8762106   0.3758036  )
        40           C   tau(  40) = (   0.1253777   0.1253777   0.8743244  )
        41           C   tau(  41) = (   0.1241632   0.1241632   0.3748692  )
        42           C   tau(  42) = (   0.1240294   0.6244528   0.8759780  )
        43           C   tau(  43) = (   0.1268711   0.6231640   0.3763427  )
        44           C   tau(  44) = (   0.6244528   0.1240294   0.8759780  )
        45           C   tau(  45) = (   0.6231640   0.1268711   0.3763427  )
        46           C   tau(  46) = (   0.6244528   0.8759780   0.1240294  )
        47           C   tau(  47) = (   0.6244835   0.6244835   0.8740965  )
        48           C   tau(  48) = (   0.3748692   0.1241632   0.1241632  )
        49           C   tau(  49) = (   0.3763427   0.1268711   0.6231640  )
        50           C   tau(  50) = (   0.3763427   0.6231640   0.1268711  )
        51           C   tau(  51) = (   0.3652385   0.6353798   0.6353798  )
        52           C   tau(  52) = (   0.8743244   0.1253777   0.1253777  )
        53           C   tau(  53) = (   0.8759780   0.1240294   0.6244528  )
        54           C   tau(  54) = (   0.8759780   0.6244528   0.1240294  )
        55           C   tau(  55) = (   0.8740965   0.6244835   0.6244835  )
        56           C   tau(  56) = (   0.1241632   0.3748692   0.1241632  )
        57           C   tau(  57) = (   0.1268711   0.3763427   0.6231640  )
        58           C   tau(  58) = (   0.1253777   0.8743244   0.1253777  )
        59           C   tau(  59) = (   0.1240294   0.8759780   0.6244528  )
        60           C   tau(  60) = (   0.6231640   0.3763427   0.1268711  )
        61           C   tau(  61) = (   0.6353798   0.6353798   0.3652385  )
        62           C   tau(  62) = (   0.7495886  -0.0004886   0.7495886  )
        63           N   tau(  63) = (   0.3660676   0.3660676   0.3660676  )

   Crystallographic axes

     site n.     atom                  positions (cryst. coord.)
         1           C   tau(   1) = (  0.3757553  0.3757553  0.8736395  )
         2           C   tau(   2) = (  0.5001453  0.0002970  0.0002970  )
         3           C   tau(   3) = (  0.5000223 -0.0002305  0.5000223  )
         4           C   tau(   4) = (  0.0002970  0.5001453  0.0002970  )
         5           C   tau(   5) = ( -0.0002305  0.5000223  0.5000223  )
         6           C   tau(   6) = ( -0.0001163 -0.0001163 -0.0001163  )
         7           C   tau(   7) = (  0.0002970  0.0002970  0.5001453  )
         8           C   tau(   8) = (  0.2503244  0.2503244 -0.0010848  )
         9           C   tau(   9) = (  0.2509669  0.2509669  0.4954651  )
        10           C   tau(  10) = (  0.2502948  0.7490746  0.0009335  )
        11           C   tau(  11) = (  0.2519649  0.7481396  0.5018437  )
        12           C   tau(  12) = (  0.7490746  0.2502948  0.0009335  )
        13           C   tau(  13) = (  0.7481396  0.2519649  0.5018437  )
        14           C   tau(  14) = (  0.7495886  0.7495886 -0.0004886  )
        15           C   tau(  15) = (  0.5000223  0.5000223 -0.0002305  )
        16           C   tau(  16) = (  0.7488819  0.7488819  0.4985771  )
        17           C   tau(  17) = (  0.5018437  0.2519649  0.7481396  )
        18           C   tau(  18) = (  0.5018437  0.7481396  0.2519649  )
        19           C   tau(  19) = (  0.4985771  0.7488819  0.7488819  )
        20           C   tau(  20) = ( -0.0010848  0.2503244  0.2503244  )
        21           C   tau(  21) = (  0.0009335  0.2502948  0.7490746  )
        22           C   tau(  22) = (  0.0009335  0.7490746  0.2502948  )
        23           C   tau(  23) = ( -0.0004886  0.7495886  0.7495886  )
        24           C   tau(  24) = (  0.2509669  0.4954651  0.2509669  )
        25           C   tau(  25) = (  0.2519649  0.5018437  0.7481396  )
        26           C   tau(  26) = (  0.2503244 -0.0010848  0.2503244  )
        27           C   tau(  27) = (  0.2502948  0.0009335  0.7490746  )
        28           C   tau(  28) = (  0.7481396  0.5018437  0.2519649  )
        29           C   tau(  29) = (  0.7488819  0.4985771  0.7488819  )
        30           C   tau(  30) = (  0.4954651  0.2509669  0.2509669  )
        31           C   tau(  31) = (  0.7490746  0.0009335  0.2502948  )
        32           C   tau(  32) = (  0.6244835  0.8740965  0.6244835  )
        33           C   tau(  33) = (  0.6353798  0.3652385  0.6353798  )
        34           C   tau(  34) = (  0.3758036  0.8762106  0.8762106  )
        35           C   tau(  35) = (  0.3757553  0.8736395  0.3757553  )
        36           C   tau(  36) = (  0.8762106  0.3758036  0.8762106  )
        37           C   tau(  37) = (  0.8736395  0.3757553  0.3757553  )
        38           C   tau(  38) = (  0.8746125  0.8746125  0.8746125  )
        39           C   tau(  39) = (  0.8762106  0.8762106  0.3758036  )
        40           C   tau(  40) = (  0.1253777  0.1253777  0.8743244  )
        41           C   tau(  41) = (  0.1241632  0.1241632  0.3748692  )
        42           C   tau(  42) = (  0.1240294  0.6244528  0.8759780  )
        43           C   tau(  43) = (  0.1268711  0.6231640  0.3763427  )
        44           C   tau(  44) = (  0.6244528  0.1240294  0.8759780  )
        45           C   tau(  45) = (  0.6231640  0.1268711  0.3763427  )
        46           C   tau(  46) = (  0.6244528  0.8759780  0.1240294  )
        47           C   tau(  47) = (  0.6244835  0.6244835  0.8740965  )
        48           C   tau(  48) = (  0.3748692  0.1241632  0.1241632  )
        49           C   tau(  49) = (  0.3763427  0.1268711  0.6231640  )
        50           C   tau(  50) = (  0.3763427  0.6231640  0.1268711  )
        51           C   tau(  51) = (  0.3652385  0.6353798  0.6353798  )
        52           C   tau(  52) = (  0.8743244  0.1253777  0.1253777  )
        53           C   tau(  53) = (  0.8759780  0.1240294  0.6244528  )
        54           C   tau(  54) = (  0.8759780  0.6244528  0.1240294  )
        55           C   tau(  55) = (  0.8740965  0.6244835  0.6244835  )
        56           C   tau(  56) = (  0.1241632  0.3748692  0.1241632  )
        57           C   tau(  57) = (  0.1268711  0.3763427  0.6231640  )
        58           C   tau(  58) = (  0.1253777  0.8743244  0.1253777  )
        59           C   tau(  59) = (  0.1240294  0.8759780  0.6244528  )
        60           C   tau(  60) = (  0.6231640  0.3763427  0.1268711  )
        61           C   tau(  61) = (  0.6353798  0.6353798  0.3652385  )
        62           C   tau(  62) = (  0.7495886 -0.0004886  0.7495886  )
        63           N   tau(  63) = (  0.3660676  0.3660676  0.3660676  )

     number of k points=     6
                       cart. coord. in units 2pi/alat
        k(    1) = (   0.0000000   0.0000000   0.0000000), wk =   0.0370370
        k(    2) = (   0.0000000   0.0000000   0.3333333), wk =   0.2222222
        k(    3) = (   0.0000000   0.3333333   0.3333333), wk =   0.2222222
        k(    4) = (   0.3333333   0.3333333   0.3333333), wk =   0.0740741
        k(    5) = (  -0.3333333   0.0000000   0.3333333), wk =   0.2222222
        k(    6) = (   0.3333333  -0.3333333   0.3333333), wk =   0.2222222

                       cryst. coord.
        k(    1) = (   0.0000000   0.0000000   0.0000000), wk =   0.0370370
        k(    2) = (   0.0000000   0.0000000   0.3333333), wk =   0.2222222
        k(    3) = (   0.0000000   0.3333333   0.3333333), wk =   0.2222222
        k(    4) = (   0.3333333   0.3333333   0.3333333), wk =   0.0740741
        k(    5) = (  -0.3333333   0.0000000   0.3333333), wk =   0.2222222
        k(    6) = (   0.3333333  -0.3333333   0.3333333), wk =   0.2222222

     Dense  grid:   194039 G-vectors     FFT dimensions: (  72,  72,  72)

     Occupations read from input 

      Spin-up

        1.0000   1.0000   1.0000   1.0000   1.0000   1.0000   1.0000   1.0000
        1.0000   1.0000   1.0000   1.0000   1.0000   1.0000   1.0000   1.0000
        1.0000   1.0000   1.0000   1.0000   1.0000   1.0000   1.0000   1.0000
        1.0000   1.0000   1.0000   1.0000   1.0000   1.0000   1.0000   1.0000
        1.0000   1.0000   1.0000   1.0000   1.0000   1.0000   1.0000   1.0000
        1.0000   1.0000   1.0000   1.0000   1.0000   1.0000   1.0000   1.0000
        1.0000   1.0000   1.0000   1.0000   1.0000   1.0000   1.0000   1.0000
        1.0000   1.0000   1.0000   1.0000   1.0000   1.0000   1.0000   1.0000
        1.0000   1.0000   1.0000   1.0000   1.0000   1.0000   1.0000   1.0000
        1.0000   1.0000   1.0000   1.0000   1.0000   1.0000   1.0000   1.0000
        1.0000   1.0000   1.0000   1.0000   1.0000   1.0000   1.0000   1.0000
        1.0000   1.0000   1.0000   1.0000   1.0000   1.0000   1.0000   1.0000
        1.0000   1.0000   1.0000   1.0000   1.0000   1.0000   1.0000   1.0000
        1.0000   1.0000   1.0000   1.0000   1.0000   1.0000   1.0000   1.0000
        1.0000   1.0000   1.0000   1.0000   1.0000   1.0000   1.0000   1.0000
        1.0000   1.0000   1.0000   1.0000   1.0000   1.0000   1.0000   1.0000
        0.0000   0.0000   0.0000   0.0000   0.0000   0.0000   0.0000   0.0000
        0.0000   0.0000   0.0000   0.0000   0.0000   0.0000   0.0000   0.0000
        0.0000   0.0000   0.0000   0.0000   0.0000   0.0000   0.0000   0.0000

      Spin-down

        1.0000   1.0000   1.0000   1.0000   1.0000   1.0000   1.0000   1.0000
        1.0000   1.0000   1.0000   1.0000   1.0000   1.0000   1.0000   1.0000
        1.0000   1.0000   1.0000   1.0000   1.0000   1.0000   1.0000   1.0000
        1.0000   1.0000   1.0000   1.0000   1.0000   1.0000   1.0000   1.0000
        1.0000   1.0000   1.0000   1.0000   1.0000   1.0000   1.0000   1.0000
        1.0000   1.0000   1.0000   1.0000   1.0000   1.0000   1.0000   1.0000
        1.0000   1.0000   1.0000   1.0000   1.0000   1.0000   1.0000   1.0000
        1.0000   1.0000   1.0000   1.0000   1.0000   1.0000   1.0000   1.0000
        1.0000   1.0000   1.0000   1.0000   1.0000   1.0000   1.0000   1.0000
        1.0000   1.0000   1.0000   1.0000   1.0000   1.0000   1.0000   1.0000
        1.0000   1.0000   1.0000   1.0000   1.0000   1.0000   1.0000   1.0000
        1.0000   1.0000   1.0000   1.0000   1.0000   1.0000   1.0000   1.0000
        1.0000   1.0000   1.0000   1.0000   1.0000   1.0000   1.0000   1.0000
        1.0000   1.0000   1.0000   1.0000   1.0000   1.0000   1.0000   1.0000
        1.0000   1.0000   1.0000   1.0000   1.0000   1.0000   1.0000   1.0000
        1.0000   1.0000   1.0000   1.0000   1.0000   0.0000   1.0000   0.0000
        0.0000   0.0000   0.0000   0.0000   0.0000   0.0000   0.0000   0.0000
        0.0000   0.0000   0.0000   0.0000   0.0000   0.0000   0.0000   0.0000
        0.0000   0.0000   0.0000   0.0000   0.0000   0.0000   0.0000   0.0000

     Estimated max dynamical RAM per process >      60.23MB

     Estimated total allocated dynamical RAM >    5782.56MB
     Generating pointlists ...
     new r_m :   0.0858 (alat units)  1.1568 (a.u.) for type    1
     new r_m :   0.0858 (alat units)  1.1568 (a.u.) for type    2

     Initial potential from superposition of free atoms

     starting charge  252.99722, renormalised to  254.00000
     Starting wfc are  252 randomized atomic wfcs

     total cpu time spent up to now is        3.8 secs

     per-process dynamical memory:    59.5 Mb

     Self-consistent Calculation

     iteration #  1     ecut=    70.00 Ry     beta=0.50
     Davidson diagonalization with overlap
     ethr =  1.00E-02,  avg # of iterations =  3.0

     total cpu time spent up to now is        6.1 secs

     total energy              =    -722.45309436 Ry
     Harris-Foulkes estimate   =    -717.55619858 Ry
     estimated scf accuracy    <       6.66440126 Ry

     total magnetization       =     2.00 Bohr mag/cell
     absolute magnetization    =     3.67 Bohr mag/cell

     iteration #  2     ecut=    70.00 Ry     beta=0.50
     Davidson diagonalization with overlap
     ethr =  2.62E-03,  avg # of iterations =  2.0

     total cpu time spent up to now is        7.5 secs

     total energy              =    -724.27304204 Ry
     Harris-Foulkes estimate   =    -722.83470336 Ry
     estimated scf accuracy    <       1.45802437 Ry

     total magnetization       =     2.00 Bohr mag/cell
     absolute magnetization    =     2.50 Bohr mag/cell

     iteration #  3     ecut=    70.00 Ry     beta=0.50
     Davidson diagonalization with overlap
     ethr =  5.74E-04,  avg # of iterations =  7.2

     total cpu time spent up to now is       10.8 secs

     total energy              =    -724.53911722 Ry
     Harris-Foulkes estimate   =    -724.57604601 Ry
     estimated scf accuracy    <       0.68084751 Ry

     total magnetization       =     2.00 Bohr mag/cell
     absolute magnetization    =     2.14 Bohr mag/cell

     iteration #  4     ecut=    70.00 Ry     beta=0.50
     Davidson diagonalization with overlap
     ethr =  2.68E-04,  avg # of iterations =  6.3

     total cpu time spent up to now is       13.7 secs

     total energy              =    -724.68140537 Ry
     Harris-Foulkes estimate   =    -724.67041914 Ry
     estimated scf accuracy    <       0.02883880 Ry

     total magnetization       =     2.00 Bohr mag/cell
     absolute magnetization    =     2.14 Bohr mag/cell

     iteration #  5     ecut=    70.00 Ry     beta=0.50
     Davidson diagonalization with overlap
     ethr =  1.14E-05,  avg # of iterations = 10.2

     total cpu time spent up to now is       19.1 secs

     total energy              =    -724.68965753 Ry
     Harris-Foulkes estimate   =    -724.68918702 Ry
     estimated scf accuracy    <       0.00582633 Ry

     total magnetization       =     2.00 Bohr mag/cell
     absolute magnetization    =     2.15 Bohr mag/cell

     iteration #  6     ecut=    70.00 Ry     beta=0.50
     Davidson diagonalization with overlap
     ethr =  2.29E-06,  avg # of iterations =  8.4

     total cpu time spent up to now is       23.3 secs

     total energy              =    -724.69083120 Ry
     Harris-Foulkes estimate   =    -724.69089964 Ry
     estimated scf accuracy    <       0.00061299 Ry

     total magnetization       =     2.00 Bohr mag/cell
     absolute magnetization    =     2.17 Bohr mag/cell

     iteration #  7     ecut=    70.00 Ry     beta=0.50
     Davidson diagonalization with overlap
     ethr =  2.41E-07,  avg # of iterations =  3.5

     total cpu time spent up to now is       25.3 secs

     total energy              =    -724.69103048 Ry
     Harris-Foulkes estimate   =    -724.69100641 Ry
     estimated scf accuracy    <       0.00008896 Ry

     total magnetization       =     2.00 Bohr mag/cell
     absolute magnetization    =     2.18 Bohr mag/cell

     iteration #  8     ecut=    70.00 Ry     beta=0.50
     Davidson diagonalization with overlap
     ethr =  3.50E-08,  avg # of iterations =  3.2

     total cpu time spent up to now is       27.5 secs

     total energy              =    -724.69107552 Ry
     Harris-Foulkes estimate   =    -724.69105804 Ry
     estimated scf accuracy    <       0.00001743 Ry

     total magnetization       =     2.00 Bohr mag/cell
     absolute magnetization    =     2.19 Bohr mag/cell

     iteration #  9     ecut=    70.00 Ry     beta=0.50
     Davidson diagonalization with overlap
     ethr =  6.86E-09,  avg # of iterations =  3.9

     total cpu time spent up to now is       29.7 secs

     total energy              =    -724.69108858 Ry
     Harris-Foulkes estimate   =    -724.69107955 Ry
     estimated scf accuracy    <       0.00000500 Ry

     total magnetization       =     2.00 Bohr mag/cell
     absolute magnetization    =     2.19 Bohr mag/cell

     iteration # 10     ecut=    70.00 Ry     beta=0.50
     Davidson diagonalization with overlap
     ethr =  1.97E-09,  avg # of iterations =  4.7
 
     Magnetic moment per site:
     atom:    1    charge:    1.8404    magn:    0.0070    constr:    0.0000
     atom:    2    charge:    1.8592    magn:    0.0082    constr:    0.0000
     atom:    3    charge:    1.8477    magn:   -0.0013    constr:    0.0000
     atom:    4    charge:    1.8592    magn:    0.0082    constr:    0.0000
     atom:    5    charge:    1.8477    magn:   -0.0013    constr:    0.0000
     atom:    6    charge:    1.8370    magn:   -0.0000    constr:    0.0000
     atom:    7    charge:    1.8592    magn:    0.0082    constr:    0.0000
     atom:    8    charge:    1.8407    magn:   -0.0008    constr:    0.0000
     atom:    9    charge:    1.8183    magn:    0.0001    constr:    0.0000
     atom:   10    charge:    1.8348    magn:   -0.0014    constr:    0.0000
     atom:   11    charge:    1.8480    magn:   -0.0028    constr:    0.0000
     atom:   12    charge:    1.8348    magn:   -0.0014    constr:    0.0000
     atom:   13    charge:    1.8480    magn:   -0.0028    constr:    0.0000
     atom:   14    charge:    1.8403    magn:   -0.0016    constr:    0.0000
     atom:   15    charge:    1.8477    magn:   -0.0013    constr:    0.0000
     atom:   16    charge:    1.8470    magn:    0.0003    constr:    0.0000
     atom:   17    charge:    1.8480    magn:   -0.0028    constr:    0.0000
     atom:   18    charge:    1.8480    magn:   -0.0028    constr:    0.0000
     atom:   19    charge:    1.8470    magn:    0.0003    constr:    0.0000
     atom:   20    charge:    1.8407    magn:   -0.0008    constr:    0.0000
     atom:   21    charge:    1.8348    magn:   -0.0014    constr:    0.0000
     atom:   22    charge:    1.8348    magn:   -0.0014    constr:    0.0000
     atom:   23    charge:    1.8403    magn:   -0.0016    constr:    0.0000
     atom:   24    charge:    1.8183    magn:    0.0001    constr:    0.0000
     atom:   25    charge:    1.8480    magn:   -0.0028    constr:    0.0000
     atom:   26    charge:    1.8407    magn:   -0.0008    constr:    0.0000
     atom:   27    charge:    1.8348    magn:   -0.0014    constr:    0.0000
     atom:   28    charge:    1.8480    magn:   -0.0028    constr:    0.0000
     atom:   29    charge:    1.8470    magn:    0.0003    constr:    0.0000
     atom:   30    charge:    1.8183    magn:    0.0001    constr:    0.0000
     atom:   31    charge:    1.8348    magn:   -0.0014    constr:    0.0000
     atom:   32    charge:    1.8405    magn:    0.0061    constr:    0.0000
     atom:   33    charge:    1.8684    magn:    0.2031    constr:    0.0000
     atom:   34    charge:    1.8381    magn:    0.0166    constr:    0.0000
     atom:   35    charge:    1.8404    magn:    0.0070    constr:    0.0000
     atom:   36    charge:    1.8381    magn:    0.0166    constr:    0.0000
     atom:   37    charge:    1.8404    magn:    0.0070    constr:    0.0000
     atom:   38    charge:    1.8432    magn:    0.0048    constr:    0.0000
     atom:   39    charge:    1.8381    magn:    0.0166    constr:    0.0000
     atom:   40    charge:    1.8434    magn:    0.0038    constr:    0.0000
     atom:   41    charge:    1.8482    magn:    0.0091    constr:    0.0000
     atom:   42    charge:    1.8416    magn:    0.0176    constr:    0.0000
     atom:   43    charge:    1.8371    magn:    0.0047    constr:    0.0000
     atom:   44    charge:    1.8416    magn:    0.0176    constr:    0.0000
     atom:   45    charge:    1.8371    magn:    0.0047    constr:    0.0000
     atom:   46    charge:    1.8416    magn:    0.0176    constr:    0.0000
     atom:   47    charge:    1.8405    magn:    0.0061    constr:    0.0000
     atom:   48    charge:    1.8482    magn:    0.0091    constr:    0.0000
     atom:   49    charge:    1.8371    magn:    0.0047    constr:    0.0000
     atom:   50    charge:    1.8371    magn:    0.0047    constr:    0.0000
     atom:   51    charge:    1.8684    magn:    0.2031    constr:    0.0000
     atom:   52    charge:    1.8434    magn:    0.0038    constr:    0.0000
     atom:   53    charge:    1.8416    magn:    0.0176    constr:    0.0000
     atom:   54    charge:    1.8416    magn:    0.0176    constr:    0.0000
     atom:   55    charge:    1.8405    magn:    0.0061    constr:    0.0000
     atom:   56    charge:    1.8482    magn:    0.0091    constr:    0.0000
     atom:   57    charge:    1.8371    magn:    0.0047    constr:    0.0000
     atom:   58    charge:    1.8434    magn:    0.0038    constr:    0.0000
     atom:   59    charge:    1.8416    magn:    0.0176    constr:    0.0000
     atom:   60    charge:    1.8371    magn:    0.0047    constr:    0.0000
     atom:   61    charge:    1.8684    magn:    0.2031    constr:    0.0000
     atom:   62    charge:    1.8403    magn:   -0.0016    constr:    0.0000
     atom:   63    charge:    2.9036    magn:    0.1261    constr:    0.0000

     total cpu time spent up to now is       32.5 secs

     End of self-consistent calculation

 ------ SPIN UP ------------


          k = 0.0000 0.0000 0.0000 ( 24207 PWs)   bands (ev):

    -8.6341  -7.1975  -6.2905  -6.2905  -6.1601  -6.1601  -5.9060  -5.0271
    -4.1528  -4.1528  -4.1343  -4.1343  -4.0302  -4.0302  -3.9942  -3.9651
    -3.8643  -3.8643  -3.3785  -2.9850  -2.6817  -2.6817  -2.1254  -0.4135
    -0.4135  -0.3640  -0.3331  -0.1798   0.1429   0.1429   0.2575   0.2575
     0.3477   0.5733   0.7832   0.7832   0.9639   0.9639   0.9829   1.0106
     1.0106   1.0615   1.3190   1.3190   3.0023   3.7771   3.7771   3.9894
     4.1990   4.1990   4.2021   4.2029   4.2412   4.2412   4.3987   4.3987
     4.4446   4.4446   4.5711   4.6204   4.6221   4.6221   4.6473   4.7193
     4.7193   4.8583   4.9198   4.9198   4.9939   5.1778   5.1778   5.2355
     5.3155   5.3155   5.3624   5.4021   5.4021   5.9821   5.9821   6.0115
     6.5734   6.5734   6.6950   6.8950   6.9822   6.9822   7.4433   8.2393
     8.2393   8.3524   8.4342   8.4342   8.5989   8.5989   8.7572   8.7654
     8.7750   8.7750   8.8412   8.8412   8.8720   9.2254   9.2283   9.2283
     9.6266   9.6266   9.8584   9.8604   9.8604   9.8811   9.9039   9.9256
     9.9256   9.9503   9.9554   9.9554  10.0744  10.0744  10.2577  10.2577
    10.2873  10.5440  12.1241  12.3880  12.3880  13.5328  14.9231  14.9231
    17.2229  17.3139  17.3139  17.4701  17.5136  17.5136  17.8013  17.8736
    17.8736  17.9694  17.9694  18.2999  18.8558  18.8558  18.9172  20.5202
    20.7370  20.7370  20.8022  20.8638  20.8639  20.9541  20.9542  20.9721

     occupation numbers 
     1.0000   1.0000   1.0000   1.0000   1.0000   1.0000   1.0000   1.0000
     1.0000   1.0000   1.0000   1.0000   1.0000   1.0000   1.0000   1.0000
     1.0000   1.0000   1.0000   1.0000   1.0000   1.0000   1.0000   1.0000
     1.0000   1.0000   1.0000   1.0000   1.0000   1.0000   1.0000   1.0000
     1.0000   1.0000   1.0000   1.0000   1.0000   1.0000   1.0000   1.0000
     1.0000   1.0000   1.0000   1.0000   1.0000   1.0000   1.0000   1.0000
     1.0000   1.0000   1.0000   1.0000   1.0000   1.0000   1.0000   1.0000
     1.0000   1.0000   1.0000   1.0000   1.0000   1.0000   1.0000   1.0000
     1.0000   1.0000   1.0000   1.0000   1.0000   1.0000   1.0000   1.0000
     1.0000   1.0000   1.0000   1.0000   1.0000   1.0000   1.0000   1.0000
     1.0000   1.0000   1.0000   1.0000   1.0000   1.0000   1.0000   1.0000
     1.0000   1.0000   1.0000   1.0000   1.0000   1.0000   1.0000   1.0000
     1.0000   1.0000   1.0000   1.0000   1.0000   1.0000   1.0000   1.0000
     1.0000   1.0000   1.0000   1.0000   1.0000   1.0000   1.0000   1.0000
     1.0000   1.0000   1.0000   1.0000   1.0000   1.0000   1.0000   1.0000
     1.0000   1.0000   1.0000   1.0000   1.0000   1.0000   1.0000   1.0000
     0.0000   0.0000   0.0000   0.0000   0.0000   0.0000   0.0000   0.0000
     0.0000   0.0000   0.0000   0.0000   0.0000   0.0000   0.0000   0.0000
     0.0000   0.0000   0.0000   0.0000   0.0000   0.0000   0.0000   0.0000

          k = 0.0000 0.0000 0.3333 ( 24280 PWs)   bands (ev):

    -8.4244  -7.6325  -6.7305  -6.0471  -5.9201  -5.8323  -5.5191  -5.3003
    -5.1634  -5.0069  -4.5399  -4.1528  -3.8223  -3.8142  -3.6908  -3.4502
    -3.2181  -3.1533  -2.9386  -2.6196  -2.5113  -2.3767  -2.3357  -1.8015
    -0.8859  -0.7037  -0.5751  -0.3653   0.1331   0.2141   0.3476   0.4021
     0.4713   0.5472   0.5595   0.6573   0.7244   0.7347   0.9827   1.4542
     1.9619   2.0000   2.1575   2.1915   2.3996   2.4682   2.4694   2.7407
     2.9340   2.9898   3.1497   3.1682   3.8518   3.9250   4.0453   4.0615
     4.2839   4.3319   4.4819   4.5327   5.0235   5.0725   5.1102   5.1956
     5.1972   5.5631   5.5949   5.6982   5.7497   6.0302   6.0800   6.1601
     6.1848   6.3077   6.3734   6.4584   6.4978   6.5758   6.6069   6.7347
     6.7588   6.8816   6.8993   6.9253   7.1336   7.1493   7.1752   7.2637
     7.3742   7.4651   7.6569   7.7605   7.8164   8.0536   8.1168   8.2709
     8.3091   8.4410   8.6198   8.6952   8.7598   9.0567   9.1670   9.3350
     9.3568   9.6096   9.6351   9.7019   9.7933   9.9090   9.9324   9.9324
     9.9540  10.0280  10.0775  10.1133  10.1908  10.2542  10.2686  10.3468
    10.3778  11.0256  11.6767  11.6861  11.9349  13.2179  14.6087  14.7721
    17.1554  17.2876  17.9349  18.2577  18.3308  18.4806  18.5028  18.5881
    18.8088  18.8279  18.9693  19.0607  19.1717  19.7898  19.8382  20.4039
    20.6378  20.6513  20.7740  20.7880  20.8190  20.8426  20.8946  20.9373

     occupation numbers 
     1.0000   1.0000   1.0000   1.0000   1.0000   1.0000   1.0000   1.0000
     1.0000   1.0000   1.0000   1.0000   1.0000   1.0000   1.0000   1.0000
     1.0000   1.0000   1.0000   1.0000   1.0000   1.0000   1.0000   1.0000
     1.0000   1.0000   1.0000   1.0000   1.0000   1.0000   1.0000   1.0000
     1.0000   1.0000   1.0000   1.0000   1.0000   1.0000   1.0000   1.0000
     1.0000   1.0000   1.0000   1.0000   1.0000   1.0000   1.0000   1.0000
     1.0000   1.0000   1.0000   1.0000   1.0000   1.0000   1.0000   1.0000
     1.0000   1.0000   1.0000   1.0000   1.0000   1.0000   1.0000   1.0000
     1.0000   1.0000   1.0000   1.0000   1.0000   1.0000   1.0000   1.0000
     1.0000   1.0000   1.0000   1.0000   1.0000   1.0000   1.0000   1.0000
     1.0000   1.0000   1.0000   1.0000   1.0000   1.0000   1.0000   1.0000
     1.0000   1.0000   1.0000   1.0000   1.0000   1.0000   1.0000   1.0000
     1.0000   1.0000   1.0000   1.0000   1.0000   1.0000   1.0000   1.0000
     1.0000   1.0000   1.0000   1.0000   1.0000   1.0000   1.0000   1.0000
     1.0000   1.0000   1.0000   1.0000   1.0000   1.0000   1.0000   1.0000
     1.0000   1.0000   1.0000   1.0000   1.0000   1.0000   1.0000   1.0000
     0.0000   0.0000   0.0000   0.0000   0.0000   0.0000   0.0000   0.0000
     0.0000   0.0000   0.0000   0.0000   0.0000   0.0000   0.0000   0.0000
     0.0000   0.0000   0.0000   0.0000   0.0000   0.0000   0.0000   0.0000

          k = 0.0000 0.3333 0.3333 ( 24236 PWs)   bands (ev):

    -8.2395  -7.4807  -7.2303  -6.6220  -6.0169  -5.6806  -5.3708  -5.0194
    -4.9889  -4.8627  -4.5170  -4.2591  -4.2279  -3.9428  -3.5718  -3.5268
    -2.8189  -2.3870  -2.3434  -2.3231  -2.1979  -2.1947  -2.0516  -1.8976
    -1.4915  -1.3281  -1.1068  -0.9219  -0.5707  -0.0638   0.0537   0.1249
     0.1645   0.4581   0.6700   1.1730   1.1846   1.3143   1.3638   1.3806
     1.4296   1.4606   1.9402   2.0527   2.1147   2.3826   2.7189   2.8117
     2.9504   3.4772   3.6385   3.6429   3.7619   3.8073   3.9581   4.0296
     4.1101   4.5296   4.6388   4.7895   5.0059   5.0311   5.1379   5.2932
     5.3182   5.5769   5.6207   5.6717   5.7304   5.9148   5.9976   6.0641
     6.1438   6.2297   6.2802   6.4744   6.5288   6.5867   6.6485   6.8336
     6.9173   6.9438   6.9988   7.0486   7.2200   7.2648   7.4764   7.6652
     7.9213   7.9271   8.0579   8.0592   8.1162   8.2243   8.2647   8.3054
     8.3485   8.4045   8.5231   8.6294   8.6739   8.7074   8.8374   8.8785
     9.0798   9.1717   9.2336   9.3015   9.4559   9.4668   9.5410   9.6394
     9.7030   9.7774   9.9018  10.0351  10.0570  10.1292  10.3725  10.6452
    10.9796  11.1925  11.5571  11.5598  12.1989  13.0013  14.5329  14.8518
    18.0068  18.1733  18.2074  18.2976  18.3435  18.7879  18.8551  18.9512
    19.1637  19.2043  19.4365  19.4754  19.6814  19.7905  19.9598  19.9866
    20.1760  20.4222  20.4685  20.4938  20.5561  20.5773  20.6111  20.6263

     occupation numbers 
     1.0000   1.0000   1.0000   1.0000   1.0000   1.0000   1.0000   1.0000
     1.0000   1.0000   1.0000   1.0000   1.0000   1.0000   1.0000   1.0000
     1.0000   1.0000   1.0000   1.0000   1.0000   1.0000   1.0000   1.0000
     1.0000   1.0000   1.0000   1.0000   1.0000   1.0000   1.0000   1.0000
     1.0000   1.0000   1.0000   1.0000   1.0000   1.0000   1.0000   1.0000
     1.0000   1.0000   1.0000   1.0000   1.0000   1.0000   1.0000   1.0000
     1.0000   1.0000   1.0000   1.0000   1.0000   1.0000   1.0000   1.0000
     1.0000   1.0000   1.0000   1.0000   1.0000   1.0000   1.0000   1.0000
     1.0000   1.0000   1.0000   1.0000   1.0000   1.0000   1.0000   1.0000
     1.0000   1.0000   1.0000   1.0000   1.0000   1.0000   1.0000   1.0000
     1.0000   1.0000   1.0000   1.0000   1.0000   1.0000   1.0000   1.0000
     1.0000   1.0000   1.0000   1.0000   1.0000   1.0000   1.0000   1.0000
     1.0000   1.0000   1.0000   1.0000   1.0000   1.0000   1.0000   1.0000
     1.0000   1.0000   1.0000   1.0000   1.0000   1.0000   1.0000   1.0000
     1.0000   1.0000   1.0000   1.0000   1.0000   1.0000   1.0000   1.0000
     1.0000   1.0000   1.0000   1.0000   1.0000   1.0000   1.0000   1.0000
     0.0000   0.0000   0.0000   0.0000   0.0000   0.0000   0.0000   0.0000
     0.0000   0.0000   0.0000   0.0000   0.0000   0.0000   0.0000   0.0000
     0.0000   0.0000   0.0000   0.0000   0.0000   0.0000   0.0000   0.0000

          k = 0.3333 0.3333 0.3333 ( 24303 PWs)   bands (ev):

    -8.0839  -7.3092  -6.9827  -6.9827  -6.3436  -6.2225  -6.2225  -5.4797
    -4.2907  -4.0365  -4.0365  -3.5819  -3.3859  -3.3859  -3.3589  -3.3589
    -3.2909  -2.9171  -2.6680  -2.6680  -1.9579  -1.9327  -1.9327  -1.5490
    -1.4630  -1.4630  -1.3967  -1.3967  -1.3244  -1.2216  -1.2216   0.0263
     0.8445   0.8445   0.9437   0.9667   0.9667   1.2659   1.8172   1.8172
     1.8766   1.8775   1.9873   1.9873   2.5534   2.5534   2.5888   2.7138
     2.7294   2.7294   3.1260   3.1260   3.5201   4.0479   4.2947   4.2947
     4.7902   4.8773   4.8773   4.9584   5.0831   5.0831   5.1323   5.2961
     5.2961   5.3959   5.4877   5.4877   5.5300   5.5300   5.5904   6.3333
     6.6548   6.6548   6.9455   6.9735   6.9971   6.9971   7.0835   7.0835
     7.1990   7.1990   7.2493   7.2493   7.2509   7.2549   7.3594   7.3594
     7.3767   7.4689   7.7258   7.7258   7.9093   7.9093   7.9609   8.0052
     8.1860   8.1860   8.2891   8.2891   8.3060   8.4434   8.4658   8.4658
     8.6767   8.6767   8.7470   9.0698   9.0838   9.5192   9.5192   9.7656
     9.7656  10.4713  10.4777  10.4777  10.5143  10.9365  10.9365  11.1037
    11.2717  11.2717  11.3018  11.6473  11.6473  12.8847  14.8312  14.8312
    18.0381  18.2230  18.2230  18.4469  18.6334  18.6334  19.1869  19.3644
    19.3644  19.5421  19.5421  19.5854  19.6144  19.6144  19.6542  19.7431
    19.7431  19.8641  19.9111  19.9111  19.9905  19.9905  20.0301  20.1533

     occupation numbers 
     1.0000   1.0000   1.0000   1.0000   1.0000   1.0000   1.0000   1.0000
     1.0000   1.0000   1.0000   1.0000   1.0000   1.0000   1.0000   1.0000
     1.0000   1.0000   1.0000   1.0000   1.0000   1.0000   1.0000   1.0000
     1.0000   1.0000   1.0000   1.0000   1.0000   1.0000   1.0000   1.0000
     1.0000   1.0000   1.0000   1.0000   1.0000   1.0000   1.0000   1.0000
     1.0000   1.0000   1.0000   1.0000   1.0000   1.0000   1.0000   1.0000
     1.0000   1.0000   1.0000   1.0000   1.0000   1.0000   1.0000   1.0000
     1.0000   1.0000   1.0000   1.0000   1.0000   1.0000   1.0000   1.0000
     1.0000   1.0000   1.0000   1.0000   1.0000   1.0000   1.0000   1.0000
     1.0000   1.0000   1.0000   1.0000   1.0000   1.0000   1.0000   1.0000
     1.0000   1.0000   1.0000   1.0000   1.0000   1.0000   1.0000   1.0000
     1.0000   1.0000   1.0000   1.0000   1.0000   1.0000   1.0000   1.0000
     1.0000   1.0000   1.0000   1.0000   1.0000   1.0000   1.0000   1.0000
     1.0000   1.0000   1.0000   1.0000   1.0000   1.0000   1.0000   1.0000
     1.0000   1.0000   1.0000   1.0000   1.0000   1.0000   1.0000   1.0000
     1.0000   1.0000   1.0000   1.0000   1.0000   1.0000   1.0000   1.0000
     0.0000   0.0000   0.0000   0.0000   0.0000   0.0000   0.0000   0.0000
     0.0000   0.0000   0.0000   0.0000   0.0000   0.0000   0.0000   0.0000
     0.0000   0.0000   0.0000   0.0000   0.0000   0.0000   0.0000   0.0000

          k =-0.3333 0.0000 0.3333 ( 24236 PWs)   bands (ev):

    -8.2261  -7.5848  -7.1076  -6.6140  -6.0641  -5.6862  -5.3993  -5.0490
    -4.9363  -4.7632  -4.5404  -4.3170  -4.2287  -4.0589  -3.6084  -3.3386
    -2.8123  -2.4346  -2.3768  -2.2881  -2.2084  -2.1562  -2.1088  -1.6765
    -1.6379  -1.3243  -1.1226  -1.0035  -0.6066  -0.0292   0.0603   0.1064
     0.2679   0.4804   0.8743   1.0235   1.1801   1.2086   1.2332   1.3825
     1.4796   1.5795   1.8412   1.8753   2.1242   2.5727   2.6494   2.8609
     2.9502   3.4608   3.6264   3.6985   3.7486   3.9011   4.0059   4.1210
     4.1650   4.3741   4.5586   4.7819   4.9516   4.9865   5.1694   5.2395
     5.3944   5.5435   5.6239   5.6762   5.7805   5.9902   6.0707   6.1194
     6.1674   6.2247   6.2672   6.4006   6.4511   6.6157   6.6233   6.7959
     6.8813   6.9551   7.0079   7.0884   7.2112   7.3636   7.4791   7.6408
     7.8188   7.8682   7.9412   8.0680   8.1697   8.2097   8.2602   8.2704
     8.3560   8.4298   8.5321   8.5777   8.7287   8.7458   8.8908   8.9616
     9.0616   9.1256   9.2189   9.3133   9.4239   9.4826   9.5083   9.6550
     9.7148   9.7480   9.9365  10.0350  10.0699  10.1023  10.4858  10.7292
    10.8839  11.1197  11.4434  11.5647  12.2022  13.2934  14.4500  14.7420
    17.9921  18.1866  18.2465  18.3008  18.3552  18.7780  18.9198  19.0921
    19.1016  19.2629  19.3259  19.4701  19.6911  19.8250  19.8562  19.9982
    20.2129  20.3270  20.3938  20.4997  20.5400  20.5727  20.6332  20.6784

     occupation numbers 
     1.0000   1.0000   1.0000   1.0000   1.0000   1.0000   1.0000   1.0000
     1.0000   1.0000   1.0000   1.0000   1.0000   1.0000   1.0000   1.0000
     1.0000   1.0000   1.0000   1.0000   1.0000   1.0000   1.0000   1.0000
     1.0000   1.0000   1.0000   1.0000   1.0000   1.0000   1.0000   1.0000
     1.0000   1.0000   1.0000   1.0000   1.0000   1.0000   1.0000   1.0000
     1.0000   1.0000   1.0000   1.0000   1.0000   1.0000   1.0000   1.0000
     1.0000   1.0000   1.0000   1.0000   1.0000   1.0000   1.0000   1.0000
     1.0000   1.0000   1.0000   1.0000   1.0000   1.0000   1.0000   1.0000
     1.0000   1.0000   1.0000   1.0000   1.0000   1.0000   1.0000   1.0000
     1.0000   1.0000   1.0000   1.0000   1.0000   1.0000   1.0000   1.0000
     1.0000   1.0000   1.0000   1.0000   1.0000   1.0000   1.0000   1.0000
     1.0000   1.0000   1.0000   1.0000   1.0000   1.0000   1.0000   1.0000
     1.0000   1.0000   1.0000   1.0000   1.0000   1.0000   1.0000   1.0000
     1.0000   1.0000   1.0000   1.0000   1.0000   1.0000   1.0000   1.0000
     1.0000   1.0000   1.0000   1.0000   1.0000   1.0000   1.0000   1.0000
     1.0000   1.0000   1.0000   1.0000   1.0000   1.0000   1.0000   1.0000
     0.0000   0.0000   0.0000   0.0000   0.0000   0.0000   0.0000   0.0000
     0.0000   0.0000   0.0000   0.0000   0.0000   0.0000   0.0000   0.0000
     0.0000   0.0000   0.0000   0.0000   0.0000   0.0000   0.0000   0.0000

          k = 0.3333-0.3333 0.3333 ( 24303 PWs)   bands (ev):

    -8.0615  -7.4351  -6.9833  -6.8316  -6.4993  -6.2210  -5.9974  -5.5251
    -4.5935  -4.0388  -3.9478  -3.7291  -3.4349  -3.3743  -3.3308  -3.2054
    -3.0808  -2.8953  -2.6962  -2.4405  -2.1081  -1.9044  -1.8628  -1.7321
    -1.4959  -1.4835  -1.4207  -1.3597  -1.3523  -1.2516  -1.1649  -0.1140
     0.7182   0.8735   0.9397   0.9724   1.0527   1.4028   1.6988   1.7577
     1.8569   1.9285   2.0387   2.2229   2.5555   2.5874   2.6818   2.7092
     2.7235   2.7716   2.8961   3.1663   3.4748   3.9550   4.2126   4.3100
     4.7597   4.7625   4.8298   4.9986   5.0075   5.0589   5.1754   5.2463
     5.2662   5.4198   5.4331   5.5117   5.6548   5.7736   5.8243   6.4146
     6.6044   6.7035   6.9045   6.9183   6.9632   7.0302   7.0756   7.0833
     7.1554   7.1690   7.2297   7.2524   7.2728   7.3130   7.3438   7.3546
     7.3817   7.4435   7.7225   7.7286   7.8050   7.9155   7.9462   7.9508
     8.1300   8.1585   8.2649   8.2811   8.3691   8.3855   8.4083   8.5018
     8.6878   8.7299   8.9273   8.9921   9.0776   9.5085   9.5858   9.5863
     9.8609  10.3828  10.4242  10.5233  10.5379  10.8610  10.9206  11.1254
    11.2238  11.2473  11.2971  11.7117  11.7282  13.2711  14.5219  14.8238
    18.0504  18.2564  18.3191  18.5115  18.6460  18.7085  19.1313  19.3612
    19.4302  19.4880  19.5167  19.5501  19.5980  19.6226  19.6438  19.7155
    19.7445  19.7825  19.8991  19.9023  19.9823  19.9869  20.0375  20.1464

     occupation numbers 
     1.0000   1.0000   1.0000   1.0000   1.0000   1.0000   1.0000   1.0000
     1.0000   1.0000   1.0000   1.0000   1.0000   1.0000   1.0000   1.0000
     1.0000   1.0000   1.0000   1.0000   1.0000   1.0000   1.0000   1.0000
     1.0000   1.0000   1.0000   1.0000   1.0000   1.0000   1.0000   1.0000
     1.0000   1.0000   1.0000   1.0000   1.0000   1.0000   1.0000   1.0000
     1.0000   1.0000   1.0000   1.0000   1.0000   1.0000   1.0000   1.0000
     1.0000   1.0000   1.0000   1.0000   1.0000   1.0000   1.0000   1.0000
     1.0000   1.0000   1.0000   1.0000   1.0000   1.0000   1.0000   1.0000
     1.0000   1.0000   1.0000   1.0000   1.0000   1.0000   1.0000   1.0000
     1.0000   1.0000   1.0000   1.0000   1.0000   1.0000   1.0000   1.0000
     1.0000   1.0000   1.0000   1.0000   1.0000   1.0000   1.0000   1.0000
     1.0000   1.0000   1.0000   1.0000   1.0000   1.0000   1.0000   1.0000
     1.0000   1.0000   1.0000   1.0000   1.0000   1.0000   1.0000   1.0000
     1.0000   1.0000   1.0000   1.0000   1.0000   1.0000   1.0000   1.0000
     1.0000   1.0000   1.0000   1.0000   1.0000   1.0000   1.0000   1.0000
     1.0000   1.0000   1.0000   1.0000   1.0000   1.0000   1.0000   1.0000
     0.0000   0.0000   0.0000   0.0000   0.0000   0.0000   0.0000   0.0000
     0.0000   0.0000   0.0000   0.0000   0.0000   0.0000   0.0000   0.0000
     0.0000   0.0000   0.0000   0.0000   0.0000   0.0000   0.0000   0.0000

 ------ SPIN DOWN ----------


          k = 0.0000 0.0000 0.0000 ( 24207 PWs)   bands (ev):

    -8.5949  -7.1200  -6.2726  -6.2726  -6.1255  -6.1255  -5.8688  -4.9815
    -4.1338  -4.1338  -4.1192  -4.1192  -3.9821  -3.9821  -3.9742  -3.9493
    -3.8235  -3.8235  -3.3352  -2.9568  -2.6346  -2.6346  -2.0039  -0.3958
    -0.3958  -0.3441  -0.3007  -0.1056   0.1610   0.1610   0.2900   0.2900
     0.3688   0.6108   0.7978   0.7978   0.9893   0.9893   1.0098   1.0267
     1.0267   1.0754   1.4593   1.4593   3.1152   3.8123   3.8123   4.0226
     4.2209   4.2280   4.2280   4.2419   4.2615   4.2615   4.4292   4.4292
     4.4771   4.4771   4.5886   4.6401   4.6401   4.6489   4.6597   4.7550
     4.7550   4.8799   4.9469   4.9469   5.0811   5.2116   5.2116   5.2679
     5.3269   5.3269   5.3716   5.4495   5.4495   6.0348   6.0348   6.0638
     6.6023   6.6023   6.7213   6.9706   7.0601   7.0601   7.6180   8.2789
     8.2789   8.3927   8.4639   8.4639   8.6319   8.6319   8.7862   8.7914
     8.7914   8.8253   8.8834   8.8834   8.8887   9.2590   9.2590   9.2605
     9.6578   9.6578   9.8674   9.8782   9.8782   9.8950   9.9348   9.9470
     9.9470   9.9677   9.9800   9.9800  10.1076  10.1076  10.3082  10.3082
    10.3341  11.0415  12.4729  12.5024  12.5024  14.2143  16.0171  16.0171
    17.2687  17.3325  17.3325  17.4939  17.5601  17.5601  17.8370  17.8954
    17.8954  18.0035  18.0035  18.4096  18.9326  18.9326  18.9660  20.5895
    20.7517  20.7518  20.8137  20.8874  20.8875  20.9758  20.9759  20.9909

     occupation numbers 
     1.0000   1.0000   1.0000   1.0000   1.0000   1.0000   1.0000   1.0000
     1.0000   1.0000   1.0000   1.0000   1.0000   1.0000   1.0000   1.0000
     1.0000   1.0000   1.0000   1.0000   1.0000   1.0000   1.0000   1.0000
     1.0000   1.0000   1.0000   1.0000   1.0000   1.0000   1.0000   1.0000
     1.0000   1.0000   1.0000   1.0000   1.0000   1.0000   1.0000   1.0000
     1.0000   1.0000   1.0000   1.0000   1.0000   1.0000   1.0000   1.0000
     1.0000   1.0000   1.0000   1.0000   1.0000   1.0000   1.0000   1.0000
     1.0000   1.0000   1.0000   1.0000   1.0000   1.0000   1.0000   1.0000
     1.0000   1.0000   1.0000   1.0000   1.0000   1.0000   1.0000   1.0000
     1.0000   1.0000   1.0000   1.0000   1.0000   1.0000   1.0000   1.0000
     1.0000   1.0000   1.0000   1.0000   1.0000   1.0000   1.0000   1.0000
     1.0000   1.0000   1.0000   1.0000   1.0000   1.0000   1.0000   1.0000
     1.0000   1.0000   1.0000   1.0000   1.0000   1.0000   1.0000   1.0000
     1.0000   1.0000   1.0000   1.0000   1.0000   1.0000   1.0000   1.0000
     1.0000   1.0000   1.0000   1.0000   1.0000   1.0000   1.0000   1.0000
     1.0000   1.0000   1.0000   1.0000   1.0000   0.0000   1.0000   0.0000
     0.0000   0.0000   0.0000   0.0000   0.0000   0.0000   0.0000   0.0000
     0.0000   0.0000   0.0000   0.0000   0.0000   0.0000   0.0000   0.0000
     0.0000   0.0000   0.0000   0.0000   0.0000   0.0000   0.0000   0.0000

          k = 0.0000 0.0000 0.3333 ( 24280 PWs)   bands (ev):

    -8.3817  -7.5902  -6.6642  -6.0293  -5.8884  -5.8065  -5.4964  -5.2822
    -5.1211  -4.9582  -4.5050  -4.1261  -3.7889  -3.7847  -3.6629  -3.4231
    -3.1787  -3.1110  -2.8996  -2.5914  -2.4921  -2.3339  -2.2893  -1.7209
    -0.8340  -0.6839  -0.5394  -0.3077   0.1738   0.2322   0.3710   0.4223
     0.4974   0.5816   0.5842   0.6833   0.7549   0.7682   1.0640   1.5130
     1.9977   2.0214   2.1951   2.2226   2.4447   2.5054   2.5075   2.7694
     2.9700   3.0111   3.2268   3.2435   3.8733   3.9628   4.0699   4.0804
     4.3041   4.3820   4.5221   4.5730   5.0618   5.1367   5.1556   5.2245
     5.2317   5.5994   5.6194   5.7344   5.7908   6.0647   6.1068   6.2054
     6.2125   6.3272   6.4031   6.4800   6.5396   6.6303   6.6391   6.7614
     6.7870   6.9185   6.9294   6.9664   7.1683   7.1711   7.2089   7.2986
     7.4228   7.5098   7.7421   7.8017   7.8671   8.0764   8.1480   8.3100
     8.3313   8.4639   8.6819   8.7529   8.7954   9.1197   9.2479   9.3809
     9.3956   9.6485   9.6643   9.7187   9.8289   9.9221   9.9577   9.9593
     9.9995  10.0589  10.1313  10.1366  10.2238  10.2971  10.3053  10.4251
    10.4279  11.3050  11.7495  11.8056  12.1222  14.0859  15.7126  15.9107
    17.1935  17.3192  17.9626  18.2925  18.3486  18.5031  18.5259  18.6304
    18.8471  18.8475  19.0111  19.1035  19.2587  19.8460  19.8840  20.4597
    20.6556  20.6878  20.7922  20.8043  20.8339  20.8702  20.9231  20.9585

     occupation numbers 
     1.0000   1.0000   1.0000   1.0000   1.0000   1.0000   1.0000   1.0000
     1.0000   1.0000   1.0000   1.0000   1.0000   1.0000   1.0000   1.0000
     1.0000   1.0000   1.0000   1.0000   1.0000   1.0000   1.0000   1.0000
     1.0000   1.0000   1.0000   1.0000   1.0000   1.0000   1.0000   1.0000
     1.0000   1.0000   1.0000   1.0000   1.0000   1.0000   1.0000   1.0000
     1.0000   1.0000   1.0000   1.0000   1.0000   1.0000   1.0000   1.0000
     1.0000   1.0000   1.0000   1.0000   1.0000   1.0000   1.0000   1.0000
     1.0000   1.0000   1.0000   1.0000   1.0000   1.0000   1.0000   1.0000
     1.0000   1.0000   1.0000   1.0000   1.0000   1.0000   1.0000   1.0000
     1.0000   1.0000   1.0000   1.0000   1.0000   1.0000   1.0000   1.0000
     1.0000   1.0000   1.0000   1.0000   1.0000   1.0000   1.0000   1.0000
     1.0000   1.0000   1.0000   1.0000   1.0000   1.0000   1.0000   1.0000
     1.0000   1.0000   1.0000   1.0000   1.0000   1.0000   1.0000   1.0000
     1.0000   1.0000   1.0000   1.0000   1.0000   1.0000   1.0000   1.0000
     1.0000   1.0000   1.0000   1.0000   1.0000   1.0000   1.0000   1.0000
     1.0000   1.0000   1.0000   1.0000   1.0000   0.0000   1.0000   0.0000
     0.0000   0.0000   0.0000   0.0000   0.0000   0.0000   0.0000   0.0000
     0.0000   0.0000   0.0000   0.0000   0.0000   0.0000   0.0000   0.0000
     0.0000   0.0000   0.0000   0.0000   0.0000   0.0000   0.0000   0.0000

          k = 0.0000 0.3333 0.3333 ( 24236 PWs)   bands (ev):

    -8.1911  -7.4338  -7.2038  -6.5812  -5.9782  -5.6515  -5.3340  -4.9850
    -4.9689  -4.8377  -4.4731  -4.2331  -4.1991  -3.8957  -3.5246  -3.4977
    -2.7801  -2.3660  -2.3149  -2.3009  -2.1642  -2.1616  -2.0060  -1.8555
    -1.4581  -1.2996  -1.0604  -0.8746  -0.4912  -0.0177   0.0732   0.1471
     0.2011   0.5004   0.7145   1.1973   1.2059   1.3342   1.3972   1.4150
     1.4663   1.5040   1.9678   2.1050   2.1782   2.4424   2.7425   2.8575
     2.9955   3.5340   3.6654   3.6671   3.7975   3.8280   4.0010   4.0543
     4.1600   4.5952   4.6690   4.8422   5.0409   5.0526   5.1707   5.3230
     5.3612   5.6173   5.6478   5.7227   5.7721   5.9433   6.0357   6.1016
     6.1564   6.2636   6.3111   6.5100   6.5496   6.6186   6.6831   6.8698
     6.9384   6.9686   7.0581   7.0778   7.2604   7.3068   7.5326   7.7208
     7.9603   7.9989   8.0851   8.0910   8.1390   8.2544   8.2950   8.3427
     8.3866   8.4283   8.5634   8.6575   8.7271   8.7331   8.8885   8.9120
     9.1051   9.2235   9.2629   9.3458   9.4951   9.5019   9.6032   9.6649
     9.7497   9.8195   9.9365  10.0835  10.0907  10.1603  10.4476  10.7809
    11.0793  11.2561  11.5839  11.8533  12.2682  13.9572  15.6548  15.9552
    18.0556  18.2012  18.2465  18.3204  18.3757  18.8137  18.8769  18.9842
    19.2006  19.2365  19.4705  19.5016  19.7088  19.8319  19.9898  20.0272
    20.2076  20.4480  20.4891  20.5183  20.5835  20.6080  20.6289  20.6553

     occupation numbers 
     1.0000   1.0000   1.0000   1.0000   1.0000   1.0000   1.0000   1.0000
     1.0000   1.0000   1.0000   1.0000   1.0000   1.0000   1.0000   1.0000
     1.0000   1.0000   1.0000   1.0000   1.0000   1.0000   1.0000   1.0000
     1.0000   1.0000   1.0000   1.0000   1.0000   1.0000   1.0000   1.0000
     1.0000   1.0000   1.0000   1.0000   1.0000   1.0000   1.0000   1.0000
     1.0000   1.0000   1.0000   1.0000   1.0000   1.0000   1.0000   1.0000
     1.0000   1.0000   1.0000   1.0000   1.0000   1.0000   1.0000   1.0000
     1.0000   1.0000   1.0000   1.0000   1.0000   1.0000   1.0000   1.0000
     1.0000   1.0000   1.0000   1.0000   1.0000   1.0000   1.0000   1.0000
     1.0000   1.0000   1.0000   1.0000   1.0000   1.0000   1.0000   1.0000
     1.0000   1.0000   1.0000   1.0000   1.0000   1.0000   1.0000   1.0000
     1.0000   1.0000   1.0000   1.0000   1.0000   1.0000   1.0000   1.0000
     1.0000   1.0000   1.0000   1.0000   1.0000   1.0000   1.0000   1.0000
     1.0000   1.0000   1.0000   1.0000   1.0000   1.0000   1.0000   1.0000
     1.0000   1.0000   1.0000   1.0000   1.0000   1.0000   1.0000   1.0000
     1.0000   1.0000   1.0000   1.0000   1.0000   0.0000   1.0000   0.0000
     0.0000   0.0000   0.0000   0.0000   0.0000   0.0000   0.0000   0.0000
     0.0000   0.0000   0.0000   0.0000   0.0000   0.0000   0.0000   0.0000
     0.0000   0.0000   0.0000   0.0000   0.0000   0.0000   0.0000   0.0000

          k = 0.3333 0.3333 0.3333 ( 24303 PWs)   bands (ev):

    -8.0276  -7.2636  -6.9572  -6.9572  -6.3077  -6.1935  -6.1935  -5.4299
    -4.2197  -4.0119  -4.0119  -3.5414  -3.3648  -3.3648  -3.3225  -3.3225
    -3.2711  -2.8930  -2.6238  -2.6238  -1.9331  -1.9125  -1.9125  -1.5262
    -1.4443  -1.4443  -1.3728  -1.3728  -1.3025  -1.1308  -1.1308   0.1542
     0.8680   0.8680   0.9937   0.9937   1.0093   1.3026   1.8435   1.8435
     1.8909   1.9294   2.0212   2.0212   2.5789   2.5789   2.6175   2.7311
     2.7572   2.7572   3.2112   3.2112   3.5581   4.1236   4.3218   4.3218
     4.8522   4.9185   4.9185   4.9750   5.1059   5.1059   5.1862   5.3272
     5.3272   5.4226   5.5146   5.5146   5.5652   5.5652   5.6447   6.4269
     6.7035   6.7035   6.9578   7.0162   7.0218   7.0218   7.1071   7.1071
     7.2202   7.2202   7.2637   7.2738   7.2738   7.2816   7.3911   7.3911
     7.4026   7.5285   7.7663   7.7663   7.9358   7.9358   7.9829   8.0255
     8.2185   8.2185   8.3147   8.3147   8.3261   8.4585   8.5160   8.5160
     8.7111   8.7111   8.8491   9.1083   9.1600   9.5701   9.5701   9.8432
     9.8432  10.5035  10.5035  10.5374  10.6162  10.9899  10.9899  11.2981
    11.2981  11.3254  11.5725  11.6875  11.6875  13.8023  15.9689  15.9689
    18.0994  18.2470  18.2470  18.4730  18.6636  18.6636  19.2205  19.3789
    19.3789  19.5651  19.5651  19.5994  19.6376  19.6376  19.6749  19.7608
    19.7608  19.8894  19.9387  19.9387  20.0292  20.0293  20.0442  20.1843

     occupation numbers 
     1.0000   1.0000   1.0000   1.0000   1.0000   1.0000   1.0000   1.0000
     1.0000   1.0000   1.0000   1.0000   1.0000   1.0000   1.0000   1.0000
     1.0000   1.0000   1.0000   1.0000   1.0000   1.0000   1.0000   1.0000
     1.0000   1.0000   1.0000   1.0000   1.0000   1.0000   1.0000   1.0000
     1.0000   1.0000   1.0000   1.0000   1.0000   1.0000   1.0000   1.0000
     1.0000   1.0000   1.0000   1.0000   1.0000   1.0000   1.0000   1.0000
     1.0000   1.0000   1.0000   1.0000   1.0000   1.0000   1.0000   1.0000
     1.0000   1.0000   1.0000   1.0000   1.0000   1.0000   1.0000   1.0000
     1.0000   1.0000   1.0000   1.0000   1.0000   1.0000   1.0000   1.0000
     1.0000   1.0000   1.0000   1.0000   1.0000   1.0000   1.0000   1.0000
     1.0000   1.0000   1.0000   1.0000   1.0000   1.0000   1.0000   1.0000
     1.0000   1.0000   1.0000   1.0000   1.0000   1.0000   1.0000   1.0000
     1.0000   1.0000   1.0000   1.0000   1.0000   1.0000   1.0000   1.0000
     1.0000   1.0000   1.0000   1.0000   1.0000   1.0000   1.0000   1.0000
     1.0000   1.0000   1.0000   1.0000   1.0000   1.0000   1.0000   1.0000
     1.0000   1.0000   1.0000   1.0000   1.0000   0.0000   1.0000   0.0000
     0.0000   0.0000   0.0000   0.0000   0.0000   0.0000   0.0000   0.0000
     0.0000   0.0000   0.0000   0.0000   0.0000   0.0000   0.0000   0.0000
     0.0000   0.0000   0.0000   0.0000   0.0000   0.0000   0.0000   0.0000

          k =-0.3333 0.0000 0.3333 ( 24236 PWs)   bands (ev):

    -8.1768  -7.5446  -7.0775  -6.5679  -6.0284  -5.6607  -5.3595  -5.0319
    -4.8963  -4.7275  -4.5171  -4.2808  -4.1933  -4.0265  -3.5669  -3.3004
    -2.7680  -2.4104  -2.3589  -2.2658  -2.1709  -2.1234  -2.0747  -1.6553
    -1.5571  -1.2916  -1.0897  -0.9484  -0.5418  -0.0117   0.0883   0.1389
     0.3118   0.5277   0.9410   1.0528   1.2017   1.2288   1.2661   1.4023
     1.5097   1.6242   1.8929   1.9012   2.1508   2.6371   2.7016   2.9038
     2.9981   3.5060   3.6640   3.7191   3.7779   3.9276   4.0462   4.1522
     4.2280   4.4284   4.5944   4.8341   4.9728   5.0181   5.2016   5.2743
     5.4344   5.5846   5.6497   5.7194   5.8262   6.0222   6.0864   6.1522
     6.1965   6.2551   6.3051   6.4328   6.4856   6.6405   6.6540   6.8157
     6.9048   6.9804   7.0453   7.1386   7.2640   7.4193   7.5368   7.6802
     7.9080   7.9180   7.9692   8.0838   8.1983   8.2321   8.2842   8.3038
     8.3908   8.4678   8.5809   8.6104   8.7680   8.7805   8.9230   8.9875
     9.1071   9.1593   9.2632   9.3554   9.4700   9.5277   9.5343   9.6965
     9.7519   9.8066   9.9660  10.0669  10.1043  10.1426  10.5331  10.9456
    10.9769  11.1963  11.5094  11.7331  12.3599  14.1875  15.5546  15.8599
    18.0292  18.2134  18.2752  18.3285  18.3870  18.8009  18.9445  19.1190
    19.1340  19.2903  19.3909  19.5028  19.7212  19.8716  19.8852  20.0444
    20.2452  20.3592  20.4248  20.5188  20.5606  20.5977  20.6558  20.7036

     occupation numbers 
     1.0000   1.0000   1.0000   1.0000   1.0000   1.0000   1.0000   1.0000
     1.0000   1.0000   1.0000   1.0000   1.0000   1.0000   1.0000   1.0000
     1.0000   1.0000   1.0000   1.0000   1.0000   1.0000   1.0000   1.0000
     1.0000   1.0000   1.0000   1.0000   1.0000   1.0000   1.0000   1.0000
     1.0000   1.0000   1.0000   1.0000   1.0000   1.0000   1.0000   1.0000
     1.0000   1.0000   1.0000   1.0000   1.0000   1.0000   1.0000   1.0000
     1.0000   1.0000   1.0000   1.0000   1.0000   1.0000   1.0000   1.0000
     1.0000   1.0000   1.0000   1.0000   1.0000   1.0000   1.0000   1.0000
     1.0000   1.0000   1.0000   1.0000   1.0000   1.0000   1.0000   1.0000
     1.0000   1.0000   1.0000   1.0000   1.0000   1.0000   1.0000   1.0000
     1.0000   1.0000   1.0000   1.0000   1.0000   1.0000   1.0000   1.0000
     1.0000   1.0000   1.0000   1.0000   1.0000   1.0000   1.0000   1.0000
     1.0000   1.0000   1.0000   1.0000   1.0000   1.0000   1.0000   1.0000
     1.0000   1.0000   1.0000   1.0000   1.0000   1.0000   1.0000   1.0000
     1.0000   1.0000   1.0000   1.0000   1.0000   1.0000   1.0000   1.0000
     1.0000   1.0000   1.0000   1.0000   1.0000   0.0000   1.0000   0.0000
     0.0000   0.0000   0.0000   0.0000   0.0000   0.0000   0.0000   0.0000
     0.0000   0.0000   0.0000   0.0000   0.0000   0.0000   0.0000   0.0000
     0.0000   0.0000   0.0000   0.0000   0.0000   0.0000   0.0000   0.0000

          k = 0.3333-0.3333 0.3333 ( 24303 PWs)   bands (ev):

    -8.0034  -7.3961  -6.9578  -6.8035  -6.4714  -6.1917  -5.9526  -5.4796
    -4.5317  -4.0162  -3.9254  -3.6897  -3.4121  -3.3491  -3.3141  -3.1714
    -3.0505  -2.8676  -2.6556  -2.3831  -2.0606  -1.8778  -1.8321  -1.7093
    -1.4785  -1.4677  -1.3969  -1.3368  -1.3278  -1.1847  -1.0790   0.0010
     0.7461   0.8978   0.9691   0.9971   1.0967   1.4498   1.7215   1.7936
     1.8788   1.9636   2.0692   2.2815   2.5953   2.6055   2.7045   2.7313
     2.7524   2.8243   2.9414   3.2575   3.5163   4.0155   4.2605   4.3390
     4.7831   4.8034   4.8818   5.0299   5.0303   5.0768   5.2219   5.2717
     5.2930   5.4466   5.4662   5.5451   5.7113   5.8261   5.8764   6.4982
     6.6335   6.7401   6.9309   6.9476   6.9783   7.0534   7.0906   7.1221
     7.1848   7.1932   7.2491   7.2825   7.2959   7.3526   7.3760   7.3836
     7.4109   7.4793   7.7633   7.7670   7.8485   7.9418   7.9709   7.9798
     8.1541   8.1850   8.2868   8.3152   8.4028   8.4238   8.4283   8.5495
     8.7230   8.7626   8.9846   9.0258   9.1908   9.5590   9.6244   9.6899
     9.9543  10.4080  10.5445  10.5484  10.6133  10.9654  10.9666  11.2198
    11.2484  11.3250  11.5012  11.7660  11.8185  14.1723  15.6325  15.9679
    18.0815  18.2784  18.3468  18.5450  18.6717  18.7569  19.1664  19.3838
    19.4456  19.5024  19.5350  19.5686  19.6355  19.6470  19.6738  19.7351
    19.7607  19.8097  19.9288  19.9313  20.0026  20.0041  20.0709  20.1805

     occupation numbers 
     1.0000   1.0000   1.0000   1.0000   1.0000   1.0000   1.0000   1.0000
     1.0000   1.0000   1.0000   1.0000   1.0000   1.0000   1.0000   1.0000
     1.0000   1.0000   1.0000   1.0000   1.0000   1.0000   1.0000   1.0000
     1.0000   1.0000   1.0000   1.0000   1.0000   1.0000   1.0000   1.0000
     1.0000   1.0000   1.0000   1.0000   1.0000   1.0000   1.0000   1.0000
     1.0000   1.0000   1.0000   1.0000   1.0000   1.0000   1.0000   1.0000
     1.0000   1.0000   1.0000   1.0000   1.0000   1.0000   1.0000   1.0000
     1.0000   1.0000   1.0000   1.0000   1.0000   1.0000   1.0000   1.0000
     1.0000   1.0000   1.0000   1.0000   1.0000   1.0000   1.0000   1.0000
     1.0000   1.0000   1.0000   1.0000   1.0000   1.0000   1.0000   1.0000
     1.0000   1.0000   1.0000   1.0000   1.0000   1.0000   1.0000   1.0000
     1.0000   1.0000   1.0000   1.0000   1.0000   1.0000   1.0000   1.0000
     1.0000   1.0000   1.0000   1.0000   1.0000   1.0000   1.0000   1.0000
     1.0000   1.0000   1.0000   1.0000   1.0000   1.0000   1.0000   1.0000
     1.0000   1.0000   1.0000   1.0000   1.0000   1.0000   1.0000   1.0000
     1.0000   1.0000   1.0000   1.0000   1.0000   0.0000   1.0000   0.0000
     0.0000   0.0000   0.0000   0.0000   0.0000   0.0000   0.0000   0.0000
     0.0000   0.0000   0.0000   0.0000   0.0000   0.0000   0.0000   0.0000
     0.0000   0.0000   0.0000   0.0000   0.0000   0.0000   0.0000   0.0000

     highest occupied, lowest unoccupied level (ev):    14.9231   13.8023

!    total energy              =    -724.69109261 Ry
     Harris-Foulkes estimate   =    -724.69109173 Ry
     estimated scf accuracy    <       0.00000094 Ry

     The total energy is the sum of the following terms:

     one-electron contribution =     232.71034900 Ry
     hartree contribution      =      69.29138422 Ry
     xc contribution           =    -226.41662308 Ry
     ewald contribution        =    -800.27620275 Ry

     total magnetization       =     2.00 Bohr mag/cell
     absolute magnetization    =     2.20 Bohr mag/cell

     convergence has been achieved in  10 iterations

     Writing output data file di.save
 
     init_run     :      1.36s CPU      1.73s WALL (       1 calls)
     electrons    :     28.30s CPU     28.73s WALL (       1 calls)

     Called by init_run:
     wfcinit      :      0.74s CPU      0.80s WALL (       1 calls)
     wfcinit:atom :      0.01s CPU      0.01s WALL (       2 calls)
     wfcinit:wfcr :      0.69s CPU      0.75s WALL (       2 calls)
     potinit      :      0.09s CPU      0.10s WALL (       1 calls)

     Called by electrons:
     c_bands      :     26.55s CPU     26.95s WALL (      10 calls)
     sum_band     :      1.17s CPU      1.18s WALL (      10 calls)
     v_of_rho     :      0.40s CPU      0.41s WALL (      11 calls)
     v_h          :      0.01s CPU      0.01s WALL (      11 calls)
     v_xc         :      0.39s CPU      0.40s WALL (      11 calls)
     mix_rho      :      0.07s CPU      0.08s WALL (      10 calls)

     Called by c_bands:
     init_us_2    :      0.20s CPU      0.20s WALL (      42 calls)
     cegterg      :     23.86s CPU     24.23s WALL (      20 calls)

     Called by sum_band:

     Called by *egterg:
     h_psi        :      9.29s CPU      9.41s WALL (     140 calls)
     g_psi        :      0.05s CPU      0.06s WALL (     118 calls)
     cdiaghg      :     10.40s CPU     10.45s WALL (     138 calls)
     cegterg:over :      1.84s CPU      1.84s WALL (     118 calls)
     cegterg:upda :      1.40s CPU      1.41s WALL (     118 calls)
     cegterg:last :      0.52s CPU      0.52s WALL (      20 calls)

     Called by h_psi:
     h_psi:pot    :      9.18s CPU      9.30s WALL (     140 calls)
     h_psi:calbec :      1.99s CPU      2.01s WALL (     140 calls)
     vloc_psi     :      5.11s CPU      5.19s WALL (     140 calls)
     add_vuspsi   :      2.08s CPU      2.10s WALL (     140 calls)

     General routines
     calbec       :      1.99s CPU      2.01s WALL (     140 calls)
     fft          :      0.13s CPU      0.34s WALL (     228 calls)
     fftw         :      5.44s CPU      5.44s WALL (   20468 calls)
 
     Parallel routines
     fft_scatter  :      1.61s CPU      1.58s WALL (   20696 calls)
 
     PWSCF        :    32.54s CPU        36.41s WALL

 
   This run was terminated on:  10:30:49  12May2020            

=------------------------------------------------------------------------------=
   JOB DONE.
=------------------------------------------------------------------------------=
