
     Program PWSCF v.6.1 (svn rev. 13369) starts on 12May2020 at 10:27:23 

     This program is part of the open-source Quantum ESPRESSO suite
     for quantum simulation of materials; please cite
         "P. Giannozzi et al., J. Phys.:Condens. Matter 21 395502 (2009);
          URL http://www.quantum-espresso.org", 
     in publications or presentations arising from this work. More details at
     http://www.quantum-espresso.org/quote

     Parallel version (MPI), running on    96 processors
     K-points division:     npool     =       6
     R & G space division:  proc/nbgrp/npool/nimage =      16
     Reading input from scf.in
Warning: card &IONS ignored
Warning: card / ignored

     Current dimensions of program PWSCF are:
     Max number of different atomic species (ntypx) = 10
     Max number of k-points (npk) =  40000
     Max angular momentum in pseudopotentials (lmaxx) =  3

     Subspace diagonalization in iterative solution of the eigenvalue problem:
     a serial algorithm will be used

 
     Parallelization info
     --------------------
     sticks:   dense  smooth     PW     G-vecs:    dense   smooth      PW
     Min         252     252     67                12125    12125    1669
     Max         254     254     68                12129    12129    1672
     Sum        4049    4049   1085               194039   194039   26745
 


     bravais-lattice index     =            1
     lattice parameter (alat)  =      13.4862  a.u.
     unit-cell volume          =    2452.8358 (a.u.)^3
     number of atoms/cell      =           63
     number of atomic types    =            2
     number of electrons       =       254.00 (up: 127.00, down: 127.00)
     number of Kohn-Sham states=          152
     kinetic-energy cutoff     =      70.0000  Ry
     charge density cutoff     =     280.0000  Ry
     convergence threshold     =      1.0E-06
     mixing beta               =       0.5000
     number of iterations used =            8  plain     mixing
     Exchange-correlation      = PBE ( 1  4  3  4 0 0)

     celldm(1)=  13.486197  celldm(2)=   0.000000  celldm(3)=   0.000000
     celldm(4)=   0.000000  celldm(5)=   0.000000  celldm(6)=   0.000000

     crystal axes: (cart. coord. in units of alat)
               a(1) = (   1.000000   0.000000   0.000000 )  
               a(2) = (   0.000000   1.000000   0.000000 )  
               a(3) = (   0.000000   0.000000   1.000000 )  

     reciprocal axes: (cart. coord. in units 2 pi/alat)
               b(1) = (  1.000000  0.000000  0.000000 )  
               b(2) = (  0.000000  1.000000  0.000000 )  
               b(3) = (  0.000000  0.000000  1.000000 )  


     PseudoPot. # 1 for C  read from file:
     /home/tjsmart/Pseudo/C_ONCV_PBE-1.0.upf
     MD5 check sum: 72b63e32b2fd29504de26a4901699f60
     Pseudo is Norm-conserving, Zval =  4.0
     Generated using ONCVPSP code by D. R. Hamann
     Using radial grid of 1248 points,  4 beta functions with: 
                l(1) =   0
                l(2) =   0
                l(3) =   1
                l(4) =   1

     PseudoPot. # 2 for N  read from file:
     /home/tjsmart/Pseudo/N_ONCV_PBE-1.0.upf
     MD5 check sum: 09890da6b2972017450f7114a6086fad
     Pseudo is Norm-conserving, Zval =  5.0
     Generated using ONCVPSP code by D. R. Hamann
     Using radial grid of 1058 points,  4 beta functions with: 
                l(1) =   0
                l(2) =   0
                l(3) =   1
                l(4) =   1

     atomic species   valence    mass     pseudopotential
        C              4.00    12.01110     C ( 1.00)
        N              5.00    14.00670     N ( 1.00)

     Starting magnetic structure 
     atomic species   magnetization
        C            0.200
        N            0.200

      6 Sym. Ops. (no inversion) found


                                    s                        frac. trans.

      isym =  1     identity                                     

 cryst.   s( 1) = (     1          0          0      )
                  (     0          1          0      )
                  (     0          0          1      )

 cart.    s( 1) = (  1.0000000  0.0000000  0.0000000 )
                  (  0.0000000  1.0000000  0.0000000 )
                  (  0.0000000  0.0000000  1.0000000 )


      isym =  2     120 deg rotation - cart. axis [-1,-1,-1]     

 cryst.   s( 2) = (     0          0          1      )
                  (     1          0          0      )
                  (     0          1          0      )

 cart.    s( 2) = (  0.0000000  1.0000000  0.0000000 )
                  (  0.0000000  0.0000000  1.0000000 )
                  (  1.0000000  0.0000000  0.0000000 )


      isym =  3     120 deg rotation - cart. axis [1,1,1]        

 cryst.   s( 3) = (     0          1          0      )
                  (     0          0          1      )
                  (     1          0          0      )

 cart.    s( 3) = (  0.0000000  0.0000000  1.0000000 )
                  (  1.0000000  0.0000000  0.0000000 )
                  (  0.0000000  1.0000000  0.0000000 )


      isym =  4     inv. 180 deg rotation - cart. axis [1,-1,0]  

 cryst.   s( 4) = (     0          1          0      )
                  (     1          0          0      )
                  (     0          0          1      )

 cart.    s( 4) = (  0.0000000  1.0000000  0.0000000 )
                  (  1.0000000  0.0000000  0.0000000 )
                  (  0.0000000  0.0000000  1.0000000 )


      isym =  5     inv. 180 deg rotation - cart. axis [-1,0,1]  

 cryst.   s( 5) = (     0          0          1      )
                  (     0          1          0      )
                  (     1          0          0      )

 cart.    s( 5) = (  0.0000000  0.0000000  1.0000000 )
                  (  0.0000000  1.0000000  0.0000000 )
                  (  1.0000000  0.0000000  0.0000000 )


      isym =  6     inv. 180 deg rotation - cart. axis [0,1,-1]  

 cryst.   s( 6) = (     1          0          0      )
                  (     0          0          1      )
                  (     0          1          0      )

 cart.    s( 6) = (  1.0000000  0.0000000  0.0000000 )
                  (  0.0000000  0.0000000  1.0000000 )
                  (  0.0000000  1.0000000  0.0000000 )


     point group C_3v (3m)  
     there are  3 classes
     the character table:

       E     2C3   3s_v 
A_1    1.00  1.00  1.00
A_2    1.00  1.00 -1.00
E      2.00 -1.00  0.00

     the symmetry operations in each class and the name of the first element:

     E        1
          identity                                               
     2C3      2    3
          120 deg rotation - cart. axis [-1,-1,-1]               
     3s_v     4    5    6
          inv. 180 deg rotation - cart. axis [1,-1,0]            

   Cartesian axes

     site n.     atom                  positions (alat units)
         1           C   tau(   1) = (   0.3757826   0.3757826   0.8735660  )
         2           C   tau(   2) = (   0.5002797   0.0004535   0.0004535  )
         3           C   tau(   3) = (   0.4999752  -0.0004630   0.4999752  )
         4           C   tau(   4) = (   0.0004535   0.5002797   0.0004535  )
         5           C   tau(   5) = (  -0.0004630   0.4999752   0.4999752  )
         6           C   tau(   6) = (  -0.0001230  -0.0001230  -0.0001230  )
         7           C   tau(   7) = (   0.0004535   0.0004535   0.5002797  )
         8           C   tau(   8) = (   0.2504734   0.2504734  -0.0008756  )
         9           C   tau(   9) = (   0.2514561   0.2514561   0.4964832  )
        10           C   tau(  10) = (   0.2501313   0.7491431   0.0008329  )
        11           C   tau(  11) = (   0.2509929   0.7486868   0.5021470  )
        12           C   tau(  12) = (   0.7491431   0.2501313   0.0008329  )
        13           C   tau(  13) = (   0.7486868   0.2509929   0.5021470  )
        14           C   tau(  14) = (   0.7494982   0.7494982  -0.0008973  )
        15           C   tau(  15) = (   0.4999752   0.4999752  -0.0004630  )
        16           C   tau(  16) = (   0.7485130   0.7485130   0.4982808  )
        17           C   tau(  17) = (   0.5021470   0.2509929   0.7486868  )
        18           C   tau(  18) = (   0.5021470   0.7486868   0.2509929  )
        19           C   tau(  19) = (   0.4982808   0.7485130   0.7485130  )
        20           C   tau(  20) = (  -0.0008756   0.2504734   0.2504734  )
        21           C   tau(  21) = (   0.0008329   0.2501313   0.7491431  )
        22           C   tau(  22) = (   0.0008329   0.7491431   0.2501313  )
        23           C   tau(  23) = (  -0.0008973   0.7494982   0.7494982  )
        24           C   tau(  24) = (   0.2514561   0.4964832   0.2514561  )
        25           C   tau(  25) = (   0.2509929   0.5021470   0.7486868  )
        26           C   tau(  26) = (   0.2504734  -0.0008756   0.2504734  )
        27           C   tau(  27) = (   0.2501313   0.0008329   0.7491431  )
        28           C   tau(  28) = (   0.7486868   0.5021470   0.2509929  )
        29           C   tau(  29) = (   0.7485130   0.4982808   0.7485130  )
        30           C   tau(  30) = (   0.4964832   0.2514561   0.2514561  )
        31           C   tau(  31) = (   0.7491431   0.0008329   0.2501313  )
        32           C   tau(  32) = (   0.6242020   0.8735916   0.6242020  )
        33           C   tau(  33) = (   0.6363542   0.3620336   0.6363542  )
        34           C   tau(  34) = (   0.3756703   0.8762231   0.8762231  )
        35           C   tau(  35) = (   0.3757826   0.8735660   0.3757826  )
        36           C   tau(  36) = (   0.8762231   0.3756703   0.8762231  )
        37           C   tau(  37) = (   0.8735660   0.3757826   0.3757826  )
        38           C   tau(  38) = (   0.8744694   0.8744694   0.8744694  )
        39           C   tau(  39) = (   0.8762231   0.8762231   0.3756703  )
        40           C   tau(  40) = (   0.1253691   0.1253691   0.8744404  )
        41           C   tau(  41) = (   0.1246222   0.1246222   0.3748737  )
        42           C   tau(  42) = (   0.1235361   0.6243070   0.8761730  )
        43           C   tau(  43) = (   0.1265384   0.6235130   0.3763914  )
        44           C   tau(  44) = (   0.6243070   0.1235361   0.8761730  )
        45           C   tau(  45) = (   0.6235130   0.1265384   0.3763914  )
        46           C   tau(  46) = (   0.6243070   0.8761730   0.1235361  )
        47           C   tau(  47) = (   0.6242020   0.6242020   0.8735916  )
        48           C   tau(  48) = (   0.3748737   0.1246222   0.1246222  )
        49           C   tau(  49) = (   0.3763914   0.1265384   0.6235130  )
        50           C   tau(  50) = (   0.3763914   0.6235130   0.1265384  )
        51           C   tau(  51) = (   0.3620336   0.6363542   0.6363542  )
        52           C   tau(  52) = (   0.8744404   0.1253691   0.1253691  )
        53           C   tau(  53) = (   0.8761730   0.1235361   0.6243070  )
        54           C   tau(  54) = (   0.8761730   0.6243070   0.1235361  )
        55           C   tau(  55) = (   0.8735916   0.6242020   0.6242020  )
        56           C   tau(  56) = (   0.1246222   0.3748737   0.1246222  )
        57           C   tau(  57) = (   0.1265384   0.3763914   0.6235130  )
        58           C   tau(  58) = (   0.1253691   0.8744404   0.1253691  )
        59           C   tau(  59) = (   0.1235361   0.8761730   0.6243070  )
        60           C   tau(  60) = (   0.6235130   0.3763914   0.1265384  )
        61           C   tau(  61) = (   0.6363542   0.6363542   0.3620336  )
        62           C   tau(  62) = (   0.7494982  -0.0008973   0.7494982  )
        63           N   tau(  63) = (   0.3680390   0.3680390   0.3680390  )

   Crystallographic axes

     site n.     atom                  positions (cryst. coord.)
         1           C   tau(   1) = (  0.3757826  0.3757826  0.8735660  )
         2           C   tau(   2) = (  0.5002797  0.0004535  0.0004535  )
         3           C   tau(   3) = (  0.4999752 -0.0004630  0.4999752  )
         4           C   tau(   4) = (  0.0004535  0.5002797  0.0004535  )
         5           C   tau(   5) = ( -0.0004630  0.4999752  0.4999752  )
         6           C   tau(   6) = ( -0.0001230 -0.0001230 -0.0001230  )
         7           C   tau(   7) = (  0.0004535  0.0004535  0.5002797  )
         8           C   tau(   8) = (  0.2504734  0.2504734 -0.0008756  )
         9           C   tau(   9) = (  0.2514561  0.2514561  0.4964832  )
        10           C   tau(  10) = (  0.2501313  0.7491431  0.0008329  )
        11           C   tau(  11) = (  0.2509929  0.7486868  0.5021470  )
        12           C   tau(  12) = (  0.7491431  0.2501313  0.0008329  )
        13           C   tau(  13) = (  0.7486868  0.2509929  0.5021470  )
        14           C   tau(  14) = (  0.7494982  0.7494982 -0.0008973  )
        15           C   tau(  15) = (  0.4999752  0.4999752 -0.0004630  )
        16           C   tau(  16) = (  0.7485130  0.7485130  0.4982808  )
        17           C   tau(  17) = (  0.5021470  0.2509929  0.7486868  )
        18           C   tau(  18) = (  0.5021470  0.7486868  0.2509929  )
        19           C   tau(  19) = (  0.4982808  0.7485130  0.7485130  )
        20           C   tau(  20) = ( -0.0008756  0.2504734  0.2504734  )
        21           C   tau(  21) = (  0.0008329  0.2501313  0.7491431  )
        22           C   tau(  22) = (  0.0008329  0.7491431  0.2501313  )
        23           C   tau(  23) = ( -0.0008973  0.7494982  0.7494982  )
        24           C   tau(  24) = (  0.2514561  0.4964832  0.2514561  )
        25           C   tau(  25) = (  0.2509929  0.5021470  0.7486868  )
        26           C   tau(  26) = (  0.2504734 -0.0008756  0.2504734  )
        27           C   tau(  27) = (  0.2501313  0.0008329  0.7491431  )
        28           C   tau(  28) = (  0.7486868  0.5021470  0.2509929  )
        29           C   tau(  29) = (  0.7485130  0.4982808  0.7485130  )
        30           C   tau(  30) = (  0.4964832  0.2514561  0.2514561  )
        31           C   tau(  31) = (  0.7491431  0.0008329  0.2501313  )
        32           C   tau(  32) = (  0.6242020  0.8735916  0.6242020  )
        33           C   tau(  33) = (  0.6363542  0.3620336  0.6363542  )
        34           C   tau(  34) = (  0.3756703  0.8762231  0.8762231  )
        35           C   tau(  35) = (  0.3757826  0.8735660  0.3757826  )
        36           C   tau(  36) = (  0.8762231  0.3756703  0.8762231  )
        37           C   tau(  37) = (  0.8735660  0.3757826  0.3757826  )
        38           C   tau(  38) = (  0.8744694  0.8744694  0.8744694  )
        39           C   tau(  39) = (  0.8762231  0.8762231  0.3756703  )
        40           C   tau(  40) = (  0.1253691  0.1253691  0.8744404  )
        41           C   tau(  41) = (  0.1246222  0.1246222  0.3748737  )
        42           C   tau(  42) = (  0.1235361  0.6243070  0.8761730  )
        43           C   tau(  43) = (  0.1265384  0.6235130  0.3763914  )
        44           C   tau(  44) = (  0.6243070  0.1235361  0.8761730  )
        45           C   tau(  45) = (  0.6235130  0.1265384  0.3763914  )
        46           C   tau(  46) = (  0.6243070  0.8761730  0.1235361  )
        47           C   tau(  47) = (  0.6242020  0.6242020  0.8735916  )
        48           C   tau(  48) = (  0.3748737  0.1246222  0.1246222  )
        49           C   tau(  49) = (  0.3763914  0.1265384  0.6235130  )
        50           C   tau(  50) = (  0.3763914  0.6235130  0.1265384  )
        51           C   tau(  51) = (  0.3620336  0.6363542  0.6363542  )
        52           C   tau(  52) = (  0.8744404  0.1253691  0.1253691  )
        53           C   tau(  53) = (  0.8761730  0.1235361  0.6243070  )
        54           C   tau(  54) = (  0.8761730  0.6243070  0.1235361  )
        55           C   tau(  55) = (  0.8735916  0.6242020  0.6242020  )
        56           C   tau(  56) = (  0.1246222  0.3748737  0.1246222  )
        57           C   tau(  57) = (  0.1265384  0.3763914  0.6235130  )
        58           C   tau(  58) = (  0.1253691  0.8744404  0.1253691  )
        59           C   tau(  59) = (  0.1235361  0.8761730  0.6243070  )
        60           C   tau(  60) = (  0.6235130  0.3763914  0.1265384  )
        61           C   tau(  61) = (  0.6363542  0.6363542  0.3620336  )
        62           C   tau(  62) = (  0.7494982 -0.0008973  0.7494982  )
        63           N   tau(  63) = (  0.3680390  0.3680390  0.3680390  )

     number of k points=     6  Marzari-Vanderbilt smearing, width (Ry)=  0.0010
                       cart. coord. in units 2pi/alat
        k(    1) = (   0.0000000   0.0000000   0.0000000), wk =   0.0370370
        k(    2) = (   0.0000000   0.0000000   0.3333333), wk =   0.2222222
        k(    3) = (   0.0000000   0.3333333   0.3333333), wk =   0.2222222
        k(    4) = (   0.3333333   0.3333333   0.3333333), wk =   0.0740741
        k(    5) = (  -0.3333333   0.0000000   0.3333333), wk =   0.2222222
        k(    6) = (   0.3333333  -0.3333333   0.3333333), wk =   0.2222222

                       cryst. coord.
        k(    1) = (   0.0000000   0.0000000   0.0000000), wk =   0.0370370
        k(    2) = (   0.0000000   0.0000000   0.3333333), wk =   0.2222222
        k(    3) = (   0.0000000   0.3333333   0.3333333), wk =   0.2222222
        k(    4) = (   0.3333333   0.3333333   0.3333333), wk =   0.0740741
        k(    5) = (  -0.3333333   0.0000000   0.3333333), wk =   0.2222222
        k(    6) = (   0.3333333  -0.3333333   0.3333333), wk =   0.2222222

     Dense  grid:   194039 G-vectors     FFT dimensions: (  72,  72,  72)

     Estimated max dynamical RAM per process >      60.23MB

     Estimated total allocated dynamical RAM >    5782.56MB
     Generating pointlists ...
     new r_m :   0.0855 (alat units)  1.1530 (a.u.) for type    1
     new r_m :   0.0862 (alat units)  1.1627 (a.u.) for type    2

     Initial potential from superposition of free atoms

     starting charge  252.99722, renormalised to  254.00000
     Starting wfc are  252 randomized atomic wfcs

     total cpu time spent up to now is        3.7 secs

     per-process dynamical memory:    59.5 Mb

     Self-consistent Calculation

     iteration #  1     ecut=    70.00 Ry     beta=0.50
     Davidson diagonalization with overlap
     ethr =  1.00E-02,  avg # of iterations =  3.0

     total cpu time spent up to now is        6.0 secs

     total energy              =    -724.33147556 Ry
     Harris-Foulkes estimate   =    -724.78209623 Ry
     estimated scf accuracy    <       4.24053351 Ry

     total magnetization       =    -0.00 Bohr mag/cell
     absolute magnetization    =     0.90 Bohr mag/cell

     iteration #  2     ecut=    70.00 Ry     beta=0.50
     Davidson diagonalization with overlap
     ethr =  1.67E-03,  avg # of iterations =  2.0

     total cpu time spent up to now is        7.4 secs

     total energy              =    -724.65908986 Ry
     Harris-Foulkes estimate   =    -724.57724026 Ry
     estimated scf accuracy    <       0.67082028 Ry

     total magnetization       =    -0.00 Bohr mag/cell
     absolute magnetization    =     0.35 Bohr mag/cell

     iteration #  3     ecut=    70.00 Ry     beta=0.50
     Davidson diagonalization with overlap
     ethr =  2.64E-04,  avg # of iterations =  8.8

     total cpu time spent up to now is       11.4 secs

     total energy              =    -724.72906767 Ry
     Harris-Foulkes estimate   =    -724.76989613 Ry
     estimated scf accuracy    <       0.15183907 Ry

     total magnetization       =     0.00 Bohr mag/cell
     absolute magnetization    =     0.11 Bohr mag/cell

     iteration #  4     ecut=    70.00 Ry     beta=0.50
     Davidson diagonalization with overlap
     ethr =  5.98E-05,  avg # of iterations =  7.9

     total cpu time spent up to now is       15.4 secs

     total energy              =    -724.76739741 Ry
     Harris-Foulkes estimate   =    -724.76504097 Ry
     estimated scf accuracy    <       0.01323323 Ry

     total magnetization       =     0.00 Bohr mag/cell
     absolute magnetization    =     0.07 Bohr mag/cell

     iteration #  5     ecut=    70.00 Ry     beta=0.50
     Davidson diagonalization with overlap
     ethr =  5.21E-06,  avg # of iterations =  8.1

     total cpu time spent up to now is       19.7 secs

     total energy              =    -724.77072801 Ry
     Harris-Foulkes estimate   =    -724.77043505 Ry
     estimated scf accuracy    <       0.00153603 Ry

     total magnetization       =    -0.00 Bohr mag/cell
     absolute magnetization    =     0.04 Bohr mag/cell

     iteration #  6     ecut=    70.00 Ry     beta=0.50
     Davidson diagonalization with overlap
     ethr =  6.05E-07,  avg # of iterations =  5.0

     total cpu time spent up to now is       22.9 secs

     total energy              =    -724.77098563 Ry
     Harris-Foulkes estimate   =    -724.77100826 Ry
     estimated scf accuracy    <       0.00020115 Ry

     total magnetization       =     0.00 Bohr mag/cell
     absolute magnetization    =     0.02 Bohr mag/cell

     iteration #  7     ecut=    70.00 Ry     beta=0.50
     Davidson diagonalization with overlap
     ethr =  7.92E-08,  avg # of iterations =  3.0

     total cpu time spent up to now is       24.9 secs

     total energy              =    -724.77104221 Ry
     Harris-Foulkes estimate   =    -724.77105150 Ry
     estimated scf accuracy    <       0.00003699 Ry

     total magnetization       =     0.00 Bohr mag/cell
     absolute magnetization    =     0.01 Bohr mag/cell

     iteration #  8     ecut=    70.00 Ry     beta=0.50
     Davidson diagonalization with overlap
     ethr =  1.46E-08,  avg # of iterations =  2.8

     total cpu time spent up to now is       26.7 secs

     total energy              =    -724.77105036 Ry
     Harris-Foulkes estimate   =    -724.77105027 Ry
     estimated scf accuracy    <       0.00000291 Ry

     total magnetization       =     0.00 Bohr mag/cell
     absolute magnetization    =     0.01 Bohr mag/cell

     iteration #  9     ecut=    70.00 Ry     beta=0.50
     Davidson diagonalization with overlap
     ethr =  1.15E-09,  avg # of iterations =  3.1
 
     Magnetic moment per site:
     atom:    1    charge:    1.8244    magn:   -0.0000    constr:    0.0000
     atom:    2    charge:    1.8453    magn:   -0.0000    constr:    0.0000
     atom:    3    charge:    1.8332    magn:    0.0000    constr:    0.0000
     atom:    4    charge:    1.8453    magn:   -0.0000    constr:    0.0000
     atom:    5    charge:    1.8332    magn:    0.0000    constr:    0.0000
     atom:    6    charge:    1.8226    magn:    0.0000    constr:    0.0000
     atom:    7    charge:    1.8453    magn:   -0.0000    constr:    0.0000
     atom:    8    charge:    1.8260    magn:    0.0000    constr:    0.0000
     atom:    9    charge:    1.7995    magn:   -0.0001    constr:    0.0000
     atom:   10    charge:    1.8214    magn:    0.0000    constr:    0.0000
     atom:   11    charge:    1.8369    magn:    0.0000    constr:    0.0000
     atom:   12    charge:    1.8214    magn:    0.0000    constr:    0.0000
     atom:   13    charge:    1.8369    magn:    0.0000    constr:    0.0000
     atom:   14    charge:    1.8250    magn:    0.0000    constr:    0.0000
     atom:   15    charge:    1.8332    magn:    0.0000    constr:    0.0000
     atom:   16    charge:    1.8325    magn:    0.0000    constr:    0.0000
     atom:   17    charge:    1.8369    magn:    0.0000    constr:    0.0000
     atom:   18    charge:    1.8369    magn:    0.0000    constr:    0.0000
     atom:   19    charge:    1.8325    magn:    0.0000    constr:    0.0000
     atom:   20    charge:    1.8260    magn:    0.0000    constr:    0.0000
     atom:   21    charge:    1.8214    magn:    0.0000    constr:    0.0000
     atom:   22    charge:    1.8214    magn:    0.0000    constr:    0.0000
     atom:   23    charge:    1.8250    magn:    0.0000    constr:    0.0000
     atom:   24    charge:    1.7995    magn:   -0.0001    constr:    0.0000
     atom:   25    charge:    1.8369    magn:    0.0000    constr:    0.0000
     atom:   26    charge:    1.8260    magn:    0.0000    constr:    0.0000
     atom:   27    charge:    1.8214    magn:    0.0000    constr:    0.0000
     atom:   28    charge:    1.8369    magn:    0.0000    constr:    0.0000
     atom:   29    charge:    1.8325    magn:    0.0000    constr:    0.0000
     atom:   30    charge:    1.7995    magn:   -0.0001    constr:    0.0000
     atom:   31    charge:    1.8214    magn:    0.0000    constr:    0.0000
     atom:   32    charge:    1.8259    magn:    0.0000    constr:    0.0000
     atom:   33    charge:    1.8462    magn:    0.0000    constr:    0.0000
     atom:   34    charge:    1.8226    magn:    0.0000    constr:    0.0000
     atom:   35    charge:    1.8244    magn:   -0.0000    constr:    0.0000
     atom:   36    charge:    1.8226    magn:    0.0000    constr:    0.0000
     atom:   37    charge:    1.8244    magn:   -0.0000    constr:    0.0000
     atom:   38    charge:    1.8295    magn:    0.0000    constr:    0.0000
     atom:   39    charge:    1.8226    magn:    0.0000    constr:    0.0000
     atom:   40    charge:    1.8288    magn:    0.0000    constr:    0.0000
     atom:   41    charge:    1.8336    magn:    0.0000    constr:    0.0000
     atom:   42    charge:    1.8291    magn:    0.0000    constr:    0.0000
     atom:   43    charge:    1.8238    magn:    0.0000    constr:    0.0000
     atom:   44    charge:    1.8291    magn:    0.0000    constr:    0.0000
     atom:   45    charge:    1.8238    magn:    0.0000    constr:    0.0000
     atom:   46    charge:    1.8291    magn:    0.0000    constr:    0.0000
     atom:   47    charge:    1.8259    magn:    0.0000    constr:    0.0000
     atom:   48    charge:    1.8336    magn:    0.0000    constr:    0.0000
     atom:   49    charge:    1.8238    magn:    0.0000    constr:    0.0000
     atom:   50    charge:    1.8238    magn:    0.0000    constr:    0.0000
     atom:   51    charge:    1.8462    magn:    0.0000    constr:    0.0000
     atom:   52    charge:    1.8288    magn:    0.0000    constr:    0.0000
     atom:   53    charge:    1.8291    magn:    0.0000    constr:    0.0000
     atom:   54    charge:    1.8291    magn:    0.0000    constr:    0.0000
     atom:   55    charge:    1.8259    magn:    0.0000    constr:    0.0000
     atom:   56    charge:    1.8336    magn:    0.0000    constr:    0.0000
     atom:   57    charge:    1.8238    magn:    0.0000    constr:    0.0000
     atom:   58    charge:    1.8288    magn:    0.0000    constr:    0.0000
     atom:   59    charge:    1.8291    magn:    0.0000    constr:    0.0000
     atom:   60    charge:    1.8238    magn:    0.0000    constr:    0.0000
     atom:   61    charge:    1.8462    magn:    0.0000    constr:    0.0000
     atom:   62    charge:    1.8250    magn:    0.0000    constr:    0.0000
     atom:   63    charge:    2.9438    magn:    0.0007    constr:    0.0000

     total cpu time spent up to now is       29.1 secs

     End of self-consistent calculation

 ------ SPIN UP ------------


          k = 0.0000 0.0000 0.0000 ( 24207 PWs)   bands (ev):

    -8.5504  -6.8835  -6.2928  -6.2928  -6.1829  -6.1829  -5.8847  -4.9073
    -4.1491  -4.1491  -4.1178  -4.1178  -4.0448  -4.0312  -4.0312  -3.9505
    -3.8824  -3.8824  -3.3690  -2.9636  -2.6852  -2.6852  -2.1105  -0.3760
    -0.3760  -0.3581  -0.3286  -0.1107   0.1597   0.1597   0.2687   0.2687
     0.3425   0.5878   0.8135   0.8135   0.9414   0.9523   0.9523   1.0087
     1.0155   1.0155   1.3219   1.3219   3.0665   3.9348   3.9348   4.0389
     4.1729   4.1729   4.1747   4.2296   4.2296   4.2312   4.3911   4.3911
     4.4545   4.4545   4.5334   4.6289   4.6290   4.6290   4.6299   4.7400
     4.7400   4.8652   4.9261   4.9261   5.0294   5.1789   5.1789   5.2641
     5.3143   5.3143   5.3468   5.3753   5.3753   6.0034   6.0034   6.0429
     6.6069   6.6069   6.6789   6.9797   6.9877   6.9877   7.5277   8.3124
     8.3124   8.3680   8.4209   8.4209   8.6171   8.6171   8.7391   8.7685
     8.7685   8.7859   8.8348   8.8348   8.8389   9.2249   9.2329   9.2329
     9.6494   9.6494   9.8307   9.8483   9.8732   9.8748   9.8748   9.9203
     9.9203   9.9440   9.9563   9.9563  10.0399  10.0399  10.2391  10.2551
    10.2551  11.0824  12.3135  12.4204  12.4204  14.0239  15.2688  15.2688
    17.2826  17.3249  17.3249  17.4630  17.5306  17.5306  17.7902  17.8844
    17.8844  17.9908  17.9908  18.3460  18.9006  18.9006  18.9375  20.6005
    20.7515  20.7515  20.8004  20.8764  20.8764  20.9635  20.9665  20.9666

     occupation numbers 
     1.0000   1.0000   1.0000   1.0000   1.0000   1.0000   1.0000   1.0000
     1.0000   1.0000   1.0000   1.0000   1.0000   1.0000   1.0000   1.0000
     1.0000   1.0000   1.0000   1.0000   1.0000   1.0000   1.0000   1.0000
     1.0000   1.0000   1.0000   1.0000   1.0000   1.0000   1.0000   1.0000
     1.0000   1.0000   1.0000   1.0000   1.0000   1.0000   1.0000   1.0000
     1.0000   1.0000   1.0000   1.0000   1.0000   1.0000   1.0000   1.0000
     1.0000   1.0000   1.0000   1.0000   1.0000   1.0000   1.0000   1.0000
     1.0000   1.0000   1.0000   1.0000   1.0000   1.0000   1.0000   1.0000
     1.0000   1.0000   1.0000   1.0000   1.0000   1.0000   1.0000   1.0000
     1.0000   1.0000   1.0000   1.0000   1.0000   1.0000   1.0000   1.0000
     1.0000   1.0000   1.0000   1.0000   1.0000   1.0000   1.0000   1.0000
     1.0000   1.0000   1.0000   1.0000   1.0000   1.0000   1.0000   1.0000
     1.0000   1.0000   1.0000   1.0000   1.0000   1.0000   1.0000   1.0000
     1.0000   1.0000   1.0000   1.0000   1.0000   1.0000   1.0000   1.0000
     1.0000   1.0000   1.0000   1.0000   1.0000   1.0000   1.0000   1.0000
     1.0000   1.0000   1.0000   1.0000   1.0000   1.0000   0.0000   0.0000
     0.0000   0.0000   0.0000   0.0000   0.0000   0.0000   0.0000   0.0000
     0.0000   0.0000   0.0000   0.0000   0.0000   0.0000   0.0000   0.0000
     0.0000   0.0000   0.0000   0.0000   0.0000   0.0000   0.0000   0.0000

          k = 0.0000 0.0000 0.3333 ( 24280 PWs)   bands (ev):

    -8.3154  -7.5504  -6.5117  -6.0472  -5.9412  -5.8263  -5.4881  -5.3073
    -5.1917  -4.9865  -4.5119  -4.1153  -3.8324  -3.7958  -3.6960  -3.4340
    -3.2268  -3.1562  -2.9373  -2.5987  -2.5189  -2.4018  -2.3234  -1.7727
    -0.8280  -0.7055  -0.5982  -0.3493   0.1840   0.2822   0.3403   0.3848
     0.4670   0.5480   0.5667   0.6550   0.7234   0.7485   0.9669   1.4734
     1.9935   2.0068   2.1377   2.2340   2.4036   2.4772   2.4783   2.7375
     2.9528   2.9956   3.1555   3.1668   3.8945   3.9787   4.0443   4.0572
     4.2812   4.3705   4.5133   4.5498   5.0913   5.1111   5.1425   5.1949
     5.1954   5.6026   5.6129   5.7126   5.7256   6.0668   6.1084   6.1692
     6.1867   6.3198   6.4018   6.4483   6.4887   6.6088   6.6228   6.7418
     6.7513   6.8792   6.8938   6.9272   7.1314   7.1575   7.1805   7.2485
     7.4209   7.4644   7.6694   7.7711   7.8297   8.0404   8.1502   8.2671
     8.2894   8.4314   8.6797   8.6993   8.7610   9.0994   9.1790   9.3549
     9.3717   9.6313   9.6489   9.7095   9.7579   9.9084   9.9307   9.9360
     9.9630   9.9965  10.0995  10.1206  10.1500  10.2645  10.2709  10.3603
    10.3668  11.3733  11.6963  11.7233  12.0458  13.7933  14.9641  15.1415
    17.1928  17.2902  17.9427  18.3047  18.3485  18.4795  18.5094  18.6116
    18.8211  18.8335  18.9913  19.0802  19.2055  19.8253  19.8596  20.4704
    20.6604  20.6832  20.7816  20.7841  20.8266  20.8498  20.9056  20.9449

     occupation numbers 
     1.0000   1.0000   1.0000   1.0000   1.0000   1.0000   1.0000   1.0000
     1.0000   1.0000   1.0000   1.0000   1.0000   1.0000   1.0000   1.0000
     1.0000   1.0000   1.0000   1.0000   1.0000   1.0000   1.0000   1.0000
     1.0000   1.0000   1.0000   1.0000   1.0000   1.0000   1.0000   1.0000
     1.0000   1.0000   1.0000   1.0000   1.0000   1.0000   1.0000   1.0000
     1.0000   1.0000   1.0000   1.0000   1.0000   1.0000   1.0000   1.0000
     1.0000   1.0000   1.0000   1.0000   1.0000   1.0000   1.0000   1.0000
     1.0000   1.0000   1.0000   1.0000   1.0000   1.0000   1.0000   1.0000
     1.0000   1.0000   1.0000   1.0000   1.0000   1.0000   1.0000   1.0000
     1.0000   1.0000   1.0000   1.0000   1.0000   1.0000   1.0000   1.0000
     1.0000   1.0000   1.0000   1.0000   1.0000   1.0000   1.0000   1.0000
     1.0000   1.0000   1.0000   1.0000   1.0000   1.0000   1.0000   1.0000
     1.0000   1.0000   1.0000   1.0000   1.0000   1.0000   1.0000   1.0000
     1.0000   1.0000   1.0000   1.0000   1.0000   1.0000   1.0000   1.0000
     1.0000   1.0000   1.0000   1.0000   1.0000   1.0000   1.0000   1.0000
     1.0000   1.0000   1.0000   1.0000   1.0000   1.0000   1.0000   0.0000
     0.0000   0.0000   0.0000   0.0000   0.0000   0.0000   0.0000   0.0000
     0.0000   0.0000   0.0000   0.0000   0.0000   0.0000   0.0000   0.0000
     0.0000   0.0000   0.0000   0.0000   0.0000   0.0000   0.0000   0.0000

          k = 0.0000 0.3333 0.3333 ( 24236 PWs)   bands (ev):

    -8.0922  -7.3555  -7.2431  -6.5623  -5.9463  -5.6838  -5.3154  -5.0320
    -5.0020  -4.8474  -4.4946  -4.2733  -4.2340  -3.9462  -3.5378  -3.5123
    -2.7605  -2.3868  -2.3301  -2.3261  -2.2117  -2.1912  -2.0538  -1.8999
    -1.5109  -1.3140  -1.1010  -0.9273  -0.5497  -0.0119   0.0623   0.1140
     0.1784   0.4726   0.6894   1.1754   1.1891   1.2926   1.3678   1.4044
     1.4508   1.4595   1.9394   2.0663   2.1298   2.4059   2.7291   2.8277
     2.9606   3.5210   3.6531   3.7034   3.7829   3.8094   3.9701   4.0246
     4.0980   4.5532   4.6748   4.8270   5.0125   5.0569   5.1404   5.2993
     5.3615   5.5834   5.6456   5.6849   5.7472   5.9881   6.0251   6.0766
     6.1322   6.2228   6.2604   6.4976   6.5327   6.5962   6.6433   6.8552
     6.8995   6.9355   7.0260   7.0376   7.2331   7.2874   7.4992   7.7105
     7.9250   7.9440   8.0750   8.0867   8.1118   8.2113   8.2567   8.3125
     8.3373   8.3979   8.5383   8.6156   8.7033   8.7092   8.8398   8.8797
     9.0509   9.1869   9.2354   9.3069   9.4577   9.4800   9.5731   9.6226
     9.6940   9.7972   9.8974  10.0382  10.0444  10.1046  10.4438  10.7575
    11.0213  11.1987  11.5460  11.8703  12.2154  13.6138  14.9035  15.2023
    18.0623  18.1978  18.2397  18.3004  18.3488  18.8220  18.8546  18.9685
    19.1782  19.2306  19.4435  19.4687  19.6962  19.7944  19.9758  20.0155
    20.1967  20.4598  20.4777  20.5061  20.5651  20.5845  20.6109  20.6469

     occupation numbers 
     1.0000   1.0000   1.0000   1.0000   1.0000   1.0000   1.0000   1.0000
     1.0000   1.0000   1.0000   1.0000   1.0000   1.0000   1.0000   1.0000
     1.0000   1.0000   1.0000   1.0000   1.0000   1.0000   1.0000   1.0000
     1.0000   1.0000   1.0000   1.0000   1.0000   1.0000   1.0000   1.0000
     1.0000   1.0000   1.0000   1.0000   1.0000   1.0000   1.0000   1.0000
     1.0000   1.0000   1.0000   1.0000   1.0000   1.0000   1.0000   1.0000
     1.0000   1.0000   1.0000   1.0000   1.0000   1.0000   1.0000   1.0000
     1.0000   1.0000   1.0000   1.0000   1.0000   1.0000   1.0000   1.0000
     1.0000   1.0000   1.0000   1.0000   1.0000   1.0000   1.0000   1.0000
     1.0000   1.0000   1.0000   1.0000   1.0000   1.0000   1.0000   1.0000
     1.0000   1.0000   1.0000   1.0000   1.0000   1.0000   1.0000   1.0000
     1.0000   1.0000   1.0000   1.0000   1.0000   1.0000   1.0000   1.0000
     1.0000   1.0000   1.0000   1.0000   1.0000   1.0000   1.0000   1.0000
     1.0000   1.0000   1.0000   1.0000   1.0000   1.0000   1.0000   1.0000
     1.0000   1.0000   1.0000   1.0000   1.0000   1.0000   1.0000   1.0000
     1.0000   1.0000   1.0000   1.0000   1.0000   1.0000   1.0000   0.0000
     0.0000   0.0000   0.0000   0.0000   0.0000   0.0000   0.0000   0.0000
     0.0000   0.0000   0.0000   0.0000   0.0000   0.0000   0.0000   0.0000
     0.0000   0.0000   0.0000   0.0000   0.0000   0.0000   0.0000   0.0000

          k = 0.3333 0.3333 0.3333 ( 24303 PWs)   bands (ev):

    -7.8847  -7.1757  -6.9944  -6.9944  -6.2727  -6.2378  -6.2378  -5.4603
    -4.1863  -4.0464  -4.0464  -3.5165  -3.3964  -3.3964  -3.3414  -3.3057
    -3.3057  -2.9128  -2.6759  -2.6759  -1.9525  -1.9074  -1.9074  -1.5433
    -1.4588  -1.4588  -1.4104  -1.4104  -1.3789  -1.2303  -1.2303   0.0591
     0.8487   0.8487   0.9893   0.9893   0.9941   1.3058   1.8211   1.8211
     1.8542   1.9195   2.0101   2.0101   2.5914   2.5914   2.6002   2.6834
     2.7143   2.7143   3.1465   3.1465   3.5333   4.0644   4.2917   4.2917
     4.8186   4.9291   4.9383   4.9383   5.0817   5.0817   5.1457   5.3129
     5.3129   5.4097   5.4962   5.4962   5.5980   5.5980   5.6528   6.3833
     6.7317   6.7317   6.9246   6.9663   6.9663   6.9985   7.0662   7.0662
     7.1871   7.1871   7.2292   7.2564   7.2564   7.2673   7.3449   7.3527
     7.3527   7.4883   7.7338   7.7338   7.9229   7.9229   7.9550   7.9755
     8.1766   8.1766   8.2777   8.3035   8.3035   8.4123   8.4690   8.4690
     8.6745   8.6745   8.8701   9.0375   9.1082   9.5265   9.5265   9.7899
     9.7899  10.4777  10.4877  10.4877  10.5991  10.9354  10.9354  11.2604
    11.2628  11.2628  11.5257  11.6651  11.6651  13.5131  15.1953  15.1953
    18.1372  18.2452  18.2452  18.4536  18.6499  18.6499  19.2046  19.3997
    19.3997  19.5357  19.5357  19.5786  19.6106  19.6106  19.6445  19.7454
    19.7454  19.8677  19.9217  19.9217  20.0021  20.0021  20.0192  20.1373

     occupation numbers 
     1.0000   1.0000   1.0000   1.0000   1.0000   1.0000   1.0000   1.0000
     1.0000   1.0000   1.0000   1.0000   1.0000   1.0000   1.0000   1.0000
     1.0000   1.0000   1.0000   1.0000   1.0000   1.0000   1.0000   1.0000
     1.0000   1.0000   1.0000   1.0000   1.0000   1.0000   1.0000   1.0000
     1.0000   1.0000   1.0000   1.0000   1.0000   1.0000   1.0000   1.0000
     1.0000   1.0000   1.0000   1.0000   1.0000   1.0000   1.0000   1.0000
     1.0000   1.0000   1.0000   1.0000   1.0000   1.0000   1.0000   1.0000
     1.0000   1.0000   1.0000   1.0000   1.0000   1.0000   1.0000   1.0000
     1.0000   1.0000   1.0000   1.0000   1.0000   1.0000   1.0000   1.0000
     1.0000   1.0000   1.0000   1.0000   1.0000   1.0000   1.0000   1.0000
     1.0000   1.0000   1.0000   1.0000   1.0000   1.0000   1.0000   1.0000
     1.0000   1.0000   1.0000   1.0000   1.0000   1.0000   1.0000   1.0000
     1.0000   1.0000   1.0000   1.0000   1.0000   1.0000   1.0000   1.0000
     1.0000   1.0000   1.0000   1.0000   1.0000   1.0000   1.0000   1.0000
     1.0000   1.0000   1.0000   1.0000   1.0000   1.0000   1.0000   1.0000
     1.0000   1.0000   1.0000   1.0000   1.0000   1.0000   0.0000   0.0000
     0.0000   0.0000   0.0000   0.0000   0.0000   0.0000   0.0000   0.0000
     0.0000   0.0000   0.0000   0.0000   0.0000   0.0000   0.0000   0.0000
     0.0000   0.0000   0.0000   0.0000   0.0000   0.0000   0.0000   0.0000

          k =-0.3333 0.0000 0.3333 ( 24236 PWs)   bands (ev):

    -8.0789  -7.4803  -7.1122  -6.5520  -5.9742  -5.6878  -5.3708  -5.0334
    -4.9411  -4.7862  -4.5213  -4.2887  -4.2301  -4.0582  -3.6012  -3.3366
    -2.7729  -2.4060  -2.3661  -2.3086  -2.1972  -2.1630  -2.1153  -1.6589
    -1.6500  -1.3198  -1.1264  -0.9776  -0.6164   0.0085   0.0782   0.1214
     0.2489   0.4737   0.8672   1.0612   1.2143   1.2342   1.2412   1.3986
     1.4698   1.5763   1.8465   1.9119   2.1302   2.5731   2.6815   2.8559
     2.9421   3.5159   3.6578   3.7037   3.7823   3.8814   4.0241   4.1078
     4.1782   4.3889   4.6338   4.8127   4.9654   5.0259   5.1858   5.2416
     5.4022   5.5592   5.6465   5.6705   5.7866   6.0376   6.0776   6.1230
     6.1650   6.2125   6.2571   6.4422   6.4783   6.6053   6.6395   6.8257
     6.8903   6.9524   7.0001   7.0896   7.2156   7.3969   7.5025   7.6786
     7.8490   7.9070   7.9638   8.0649   8.1715   8.2126   8.2406   8.2779
     8.3653   8.4293   8.5216   8.5892   8.7083   8.7467   8.8812   8.9658
     9.0696   9.1370   9.2267   9.3132   9.4515   9.4872   9.5020   9.6470
     9.7250   9.7351   9.9207  10.0232  10.0657  10.1044  10.4834  10.8738
    10.9769  11.1656  11.4928  11.7568  12.2605  13.8625  14.8084  15.1077
    18.0312  18.2085  18.2501  18.3027  18.3766  18.7815  18.9255  19.1047
    19.1488  19.2759  19.3647  19.4767  19.7045  19.8490  19.8774  20.0257
    20.2304  20.3544  20.4164  20.5029  20.5639  20.5749  20.6336  20.6745

     occupation numbers 
     1.0000   1.0000   1.0000   1.0000   1.0000   1.0000   1.0000   1.0000
     1.0000   1.0000   1.0000   1.0000   1.0000   1.0000   1.0000   1.0000
     1.0000   1.0000   1.0000   1.0000   1.0000   1.0000   1.0000   1.0000
     1.0000   1.0000   1.0000   1.0000   1.0000   1.0000   1.0000   1.0000
     1.0000   1.0000   1.0000   1.0000   1.0000   1.0000   1.0000   1.0000
     1.0000   1.0000   1.0000   1.0000   1.0000   1.0000   1.0000   1.0000
     1.0000   1.0000   1.0000   1.0000   1.0000   1.0000   1.0000   1.0000
     1.0000   1.0000   1.0000   1.0000   1.0000   1.0000   1.0000   1.0000
     1.0000   1.0000   1.0000   1.0000   1.0000   1.0000   1.0000   1.0000
     1.0000   1.0000   1.0000   1.0000   1.0000   1.0000   1.0000   1.0000
     1.0000   1.0000   1.0000   1.0000   1.0000   1.0000   1.0000   1.0000
     1.0000   1.0000   1.0000   1.0000   1.0000   1.0000   1.0000   1.0000
     1.0000   1.0000   1.0000   1.0000   1.0000   1.0000   1.0000   1.0000
     1.0000   1.0000   1.0000   1.0000   1.0000   1.0000   1.0000   1.0000
     1.0000   1.0000   1.0000   1.0000   1.0000   1.0000   1.0000   1.0000
     1.0000   1.0000   1.0000   1.0000   1.0000   1.0000   1.0000   0.5000
     0.0000   0.0000   0.0000   0.0000   0.0000   0.0000   0.0000   0.0000
     0.0000   0.0000   0.0000   0.0000   0.0000   0.0000   0.0000   0.0000
     0.0000   0.0000   0.0000   0.0000   0.0000   0.0000   0.0000   0.0000

          k = 0.3333-0.3333 0.3333 ( 24303 PWs)   bands (ev):

    -7.8585  -7.3263  -6.9946  -6.8307  -6.4651  -6.2372  -5.9919  -5.4901
    -4.4588  -4.0459  -3.9374  -3.7221  -3.4305  -3.3579  -3.3185  -3.2448
    -3.0834  -2.8897  -2.6928  -2.4331  -2.0700  -1.8937  -1.8562  -1.7198
    -1.4856  -1.4704  -1.4485  -1.3678  -1.3632  -1.2566  -1.1981  -0.0555
     0.7589   0.8495   0.9495   0.9975   1.0657   1.4231   1.7528   1.7749
     1.8510   1.9476   2.0303   2.2293   2.5849   2.6112   2.6795   2.6993
     2.7084   2.7756   2.9187   3.1711   3.5073   4.0048   4.2402   4.2922
     4.8301   4.8350   4.8580   5.0053   5.0319   5.0536   5.1853   5.2426
     5.2676   5.4262   5.4321   5.5027   5.6846   5.7763   5.8121   6.4766
     6.7294   6.7728   6.9198   6.9216   6.9673   7.0458   7.0629   7.0846
     7.1559   7.1564   7.2129   7.2538   7.2550   7.3210   7.3384   7.3509
     7.3625   7.4677   7.7201   7.7378   7.8342   7.9138   7.9417   7.9518
     8.1318   8.1487   8.2514   8.2818   8.3357   8.3998   8.4057   8.4685
     8.6974   8.7132   8.9507   8.9973   9.1127   9.5357   9.5701   9.7061
     9.8542  10.4052  10.5025  10.5075  10.5566  10.9258  10.9419  11.2034
    11.2258  11.2715  11.4724  11.7131  11.7439  13.8843  14.8804  15.1939
    18.0917  18.2644  18.3392  18.5319  18.6499  18.7243  19.1970  19.3827
    19.4443  19.5043  19.5308  19.5502  19.6021  19.6287  19.6599  19.7119
    19.7459  19.7927  19.9056  19.9240  19.9741  19.9870  20.0444  20.1491

     occupation numbers 
     1.0000   1.0000   1.0000   1.0000   1.0000   1.0000   1.0000   1.0000
     1.0000   1.0000   1.0000   1.0000   1.0000   1.0000   1.0000   1.0000
     1.0000   1.0000   1.0000   1.0000   1.0000   1.0000   1.0000   1.0000
     1.0000   1.0000   1.0000   1.0000   1.0000   1.0000   1.0000   1.0000
     1.0000   1.0000   1.0000   1.0000   1.0000   1.0000   1.0000   1.0000
     1.0000   1.0000   1.0000   1.0000   1.0000   1.0000   1.0000   1.0000
     1.0000   1.0000   1.0000   1.0000   1.0000   1.0000   1.0000   1.0000
     1.0000   1.0000   1.0000   1.0000   1.0000   1.0000   1.0000   1.0000
     1.0000   1.0000   1.0000   1.0000   1.0000   1.0000   1.0000   1.0000
     1.0000   1.0000   1.0000   1.0000   1.0000   1.0000   1.0000   1.0000
     1.0000   1.0000   1.0000   1.0000   1.0000   1.0000   1.0000   1.0000
     1.0000   1.0000   1.0000   1.0000   1.0000   1.0000   1.0000   1.0000
     1.0000   1.0000   1.0000   1.0000   1.0000   1.0000   1.0000   1.0000
     1.0000   1.0000   1.0000   1.0000   1.0000   1.0000   1.0000   1.0000
     1.0000   1.0000   1.0000   1.0000   1.0000   1.0000   1.0000   1.0000
     1.0000   1.0000   1.0000   1.0000   1.0000   1.0000   1.0000   0.0000
     0.0000   0.0000   0.0000   0.0000   0.0000   0.0000   0.0000   0.0000
     0.0000   0.0000   0.0000   0.0000   0.0000   0.0000   0.0000   0.0000
     0.0000   0.0000   0.0000   0.0000   0.0000   0.0000   0.0000   0.0000

 ------ SPIN DOWN ----------


          k = 0.0000 0.0000 0.0000 ( 24207 PWs)   bands (ev):

    -8.5505  -6.8830  -6.2930  -6.2930  -6.1830  -6.1830  -5.8848  -4.9069
    -4.1493  -4.1493  -4.1180  -4.1180  -4.0449  -4.0313  -4.0313  -3.9507
    -3.8825  -3.8825  -3.3691  -2.9635  -2.6853  -2.6853  -2.1104  -0.3762
    -0.3762  -0.3582  -0.3288  -0.1105   0.1596   0.1596   0.2686   0.2686
     0.3424   0.5878   0.8134   0.8134   0.9413   0.9522   0.9522   1.0087
     1.0155   1.0155   1.3219   1.3219   3.0664   3.9349   3.9349   4.0389
     4.1728   4.1728   4.1746   4.2295   4.2295   4.2312   4.3911   4.3911
     4.4544   4.4544   4.5333   4.6288   4.6289   4.6289   4.6298   4.7399
     4.7399   4.8651   4.9260   4.9260   5.0294   5.1789   5.1789   5.2640
     5.3142   5.3142   5.3467   5.3753   5.3753   6.0033   6.0033   6.0428
     6.6069   6.6069   6.6789   6.9797   6.9877   6.9877   7.5276   8.3125
     8.3125   8.3680   8.4209   8.4209   8.6172   8.6172   8.7391   8.7685
     8.7685   8.7860   8.8348   8.8348   8.8389   9.2249   9.2329   9.2329
     9.6495   9.6495   9.8307   9.8483   9.8732   9.8748   9.8748   9.9203
     9.9203   9.9440   9.9563   9.9563  10.0399  10.0399  10.2391  10.2552
    10.2552  11.0830  12.3135  12.4204  12.4204  14.0247  15.2688  15.2688
    17.2827  17.3249  17.3249  17.4629  17.5305  17.5305  17.7903  17.8843
    17.8843  17.9907  17.9907  18.3458  18.9006  18.9006  18.9376  20.6007
    20.7514  20.7514  20.8004  20.8765  20.8765  20.9637  20.9669  20.9670

     occupation numbers 
     1.0000   1.0000   1.0000   1.0000   1.0000   1.0000   1.0000   1.0000
     1.0000   1.0000   1.0000   1.0000   1.0000   1.0000   1.0000   1.0000
     1.0000   1.0000   1.0000   1.0000   1.0000   1.0000   1.0000   1.0000
     1.0000   1.0000   1.0000   1.0000   1.0000   1.0000   1.0000   1.0000
     1.0000   1.0000   1.0000   1.0000   1.0000   1.0000   1.0000   1.0000
     1.0000   1.0000   1.0000   1.0000   1.0000   1.0000   1.0000   1.0000
     1.0000   1.0000   1.0000   1.0000   1.0000   1.0000   1.0000   1.0000
     1.0000   1.0000   1.0000   1.0000   1.0000   1.0000   1.0000   1.0000
     1.0000   1.0000   1.0000   1.0000   1.0000   1.0000   1.0000   1.0000
     1.0000   1.0000   1.0000   1.0000   1.0000   1.0000   1.0000   1.0000
     1.0000   1.0000   1.0000   1.0000   1.0000   1.0000   1.0000   1.0000
     1.0000   1.0000   1.0000   1.0000   1.0000   1.0000   1.0000   1.0000
     1.0000   1.0000   1.0000   1.0000   1.0000   1.0000   1.0000   1.0000
     1.0000   1.0000   1.0000   1.0000   1.0000   1.0000   1.0000   1.0000
     1.0000   1.0000   1.0000   1.0000   1.0000   1.0000   1.0000   1.0000
     1.0000   1.0000   1.0000   1.0000   1.0000   1.0000   0.0000   0.0000
     0.0000   0.0000   0.0000   0.0000   0.0000   0.0000   0.0000   0.0000
     0.0000   0.0000   0.0000   0.0000   0.0000   0.0000   0.0000   0.0000
     0.0000   0.0000   0.0000   0.0000   0.0000   0.0000   0.0000   0.0000

          k = 0.0000 0.0000 0.3333 ( 24280 PWs)   bands (ev):

    -8.3154  -7.5504  -6.5113  -6.0474  -5.9414  -5.8264  -5.4881  -5.3074
    -5.1918  -4.9866  -4.5119  -4.1153  -3.8326  -3.7959  -3.6962  -3.4341
    -3.2269  -3.1563  -2.9374  -2.5987  -2.5191  -2.4019  -2.3235  -1.7727
    -0.8280  -0.7056  -0.5983  -0.3493   0.1840   0.2821   0.3402   0.3847
     0.4669   0.5479   0.5666   0.6549   0.7233   0.7484   0.9669   1.4733
     1.9934   2.0068   2.1377   2.2339   2.4035   2.4771   2.4782   2.7374
     2.9527   2.9955   3.1555   3.1668   3.8944   3.9786   4.0442   4.0571
     4.2811   4.3704   4.5133   4.5497   5.0913   5.1110   5.1425   5.1948
     5.1953   5.6026   5.6129   5.7126   5.7256   6.0668   6.1084   6.1691
     6.1867   6.3198   6.4017   6.4483   6.4886   6.6088   6.6228   6.7418
     6.7513   6.8792   6.8938   6.9272   7.1314   7.1574   7.1804   7.2485
     7.4209   7.4644   7.6695   7.7711   7.8297   8.0403   8.1503   8.2670
     8.2894   8.4314   8.6797   8.6993   8.7610   9.0994   9.1790   9.3549
     9.3718   9.6313   9.6490   9.7095   9.7580   9.9084   9.9307   9.9360
     9.9630   9.9965  10.0995  10.1207  10.1500  10.2645  10.2709  10.3603
    10.3668  11.3738  11.6963  11.7232  12.0459  13.7940  14.9640  15.1415
    17.1928  17.2901  17.9427  18.3047  18.3485  18.4794  18.5094  18.6117
    18.8211  18.8334  18.9913  19.0801  19.2055  19.8255  19.8597  20.4706
    20.6605  20.6832  20.7816  20.7842  20.8266  20.8499  20.9057  20.9449

     occupation numbers 
     1.0000   1.0000   1.0000   1.0000   1.0000   1.0000   1.0000   1.0000
     1.0000   1.0000   1.0000   1.0000   1.0000   1.0000   1.0000   1.0000
     1.0000   1.0000   1.0000   1.0000   1.0000   1.0000   1.0000   1.0000
     1.0000   1.0000   1.0000   1.0000   1.0000   1.0000   1.0000   1.0000
     1.0000   1.0000   1.0000   1.0000   1.0000   1.0000   1.0000   1.0000
     1.0000   1.0000   1.0000   1.0000   1.0000   1.0000   1.0000   1.0000
     1.0000   1.0000   1.0000   1.0000   1.0000   1.0000   1.0000   1.0000
     1.0000   1.0000   1.0000   1.0000   1.0000   1.0000   1.0000   1.0000
     1.0000   1.0000   1.0000   1.0000   1.0000   1.0000   1.0000   1.0000
     1.0000   1.0000   1.0000   1.0000   1.0000   1.0000   1.0000   1.0000
     1.0000   1.0000   1.0000   1.0000   1.0000   1.0000   1.0000   1.0000
     1.0000   1.0000   1.0000   1.0000   1.0000   1.0000   1.0000   1.0000
     1.0000   1.0000   1.0000   1.0000   1.0000   1.0000   1.0000   1.0000
     1.0000   1.0000   1.0000   1.0000   1.0000   1.0000   1.0000   1.0000
     1.0000   1.0000   1.0000   1.0000   1.0000   1.0000   1.0000   1.0000
     1.0000   1.0000   1.0000   1.0000   1.0000   1.0000   1.0000   0.0000
     0.0000   0.0000   0.0000   0.0000   0.0000   0.0000   0.0000   0.0000
     0.0000   0.0000   0.0000   0.0000   0.0000   0.0000   0.0000   0.0000
     0.0000   0.0000   0.0000   0.0000   0.0000   0.0000   0.0000   0.0000

          k = 0.0000 0.3333 0.3333 ( 24236 PWs)   bands (ev):

    -8.0922  -7.3554  -7.2432  -6.5622  -5.9462  -5.6839  -5.3153  -5.0322
    -5.0021  -4.8476  -4.4947  -4.2734  -4.2341  -3.9463  -3.5378  -3.5125
    -2.7603  -2.3869  -2.3302  -2.3262  -2.2118  -2.1913  -2.0539  -1.9000
    -1.5110  -1.3141  -1.1010  -0.9274  -0.5498  -0.0119   0.0622   0.1139
     0.1783   0.4725   0.6893   1.1753   1.1890   1.2925   1.3677   1.4043
     1.4507   1.4594   1.9394   2.0662   2.1297   2.4058   2.7291   2.8276
     2.9606   3.5209   3.6530   3.7033   3.7828   3.8094   3.9701   4.0245
     4.0980   4.5531   4.6747   4.8270   5.0125   5.0569   5.1403   5.2993
     5.3615   5.5834   5.6456   5.6849   5.7472   5.9881   6.0251   6.0765
     6.1321   6.2227   6.2604   6.4976   6.5327   6.5961   6.6432   6.8552
     6.8994   6.9355   7.0259   7.0375   7.2330   7.2874   7.4992   7.7105
     7.9250   7.9440   8.0750   8.0866   8.1118   8.2113   8.2567   8.3125
     8.3373   8.3979   8.5383   8.6156   8.7033   8.7092   8.8399   8.8797
     9.0509   9.1869   9.2354   9.3069   9.4577   9.4800   9.5731   9.6226
     9.6940   9.7972   9.8974  10.0383  10.0445  10.1046  10.4439  10.7577
    11.0213  11.1987  11.5461  11.8707  12.2154  13.6144  14.9034  15.2022
    18.0623  18.1978  18.2396  18.3004  18.3487  18.8221  18.8546  18.9686
    19.1783  19.2307  19.4435  19.4686  19.6961  19.7943  19.9758  20.0157
    20.1968  20.4600  20.4778  20.5062  20.5652  20.5846  20.6109  20.6468

     occupation numbers 
     1.0000   1.0000   1.0000   1.0000   1.0000   1.0000   1.0000   1.0000
     1.0000   1.0000   1.0000   1.0000   1.0000   1.0000   1.0000   1.0000
     1.0000   1.0000   1.0000   1.0000   1.0000   1.0000   1.0000   1.0000
     1.0000   1.0000   1.0000   1.0000   1.0000   1.0000   1.0000   1.0000
     1.0000   1.0000   1.0000   1.0000   1.0000   1.0000   1.0000   1.0000
     1.0000   1.0000   1.0000   1.0000   1.0000   1.0000   1.0000   1.0000
     1.0000   1.0000   1.0000   1.0000   1.0000   1.0000   1.0000   1.0000
     1.0000   1.0000   1.0000   1.0000   1.0000   1.0000   1.0000   1.0000
     1.0000   1.0000   1.0000   1.0000   1.0000   1.0000   1.0000   1.0000
     1.0000   1.0000   1.0000   1.0000   1.0000   1.0000   1.0000   1.0000
     1.0000   1.0000   1.0000   1.0000   1.0000   1.0000   1.0000   1.0000
     1.0000   1.0000   1.0000   1.0000   1.0000   1.0000   1.0000   1.0000
     1.0000   1.0000   1.0000   1.0000   1.0000   1.0000   1.0000   1.0000
     1.0000   1.0000   1.0000   1.0000   1.0000   1.0000   1.0000   1.0000
     1.0000   1.0000   1.0000   1.0000   1.0000   1.0000   1.0000   1.0000
     1.0000   1.0000   1.0000   1.0000   1.0000   1.0000   1.0000   0.0000
     0.0000   0.0000   0.0000   0.0000   0.0000   0.0000   0.0000   0.0000
     0.0000   0.0000   0.0000   0.0000   0.0000   0.0000   0.0000   0.0000
     0.0000   0.0000   0.0000   0.0000   0.0000   0.0000   0.0000   0.0000

          k = 0.3333 0.3333 0.3333 ( 24303 PWs)   bands (ev):

    -7.8847  -7.1755  -6.9946  -6.9946  -6.2727  -6.2380  -6.2380  -5.4603
    -4.1860  -4.0466  -4.0466  -3.5163  -3.3965  -3.3965  -3.3415  -3.3059
    -3.3059  -2.9128  -2.6760  -2.6760  -1.9526  -1.9076  -1.9076  -1.5434
    -1.4589  -1.4589  -1.4105  -1.4105  -1.3790  -1.2303  -1.2303   0.0591
     0.8486   0.8486   0.9892   0.9892   0.9941   1.3057   1.8210   1.8210
     1.8541   1.9195   2.0100   2.0100   2.5913   2.5913   2.6001   2.6834
     2.7142   2.7142   3.1464   3.1464   3.5332   4.0643   4.2916   4.2916
     4.8186   4.9290   4.9383   4.9383   5.0816   5.0816   5.1457   5.3129
     5.3129   5.4096   5.4961   5.4961   5.5980   5.5980   5.6528   6.3833
     6.7318   6.7318   6.9245   6.9662   6.9662   6.9985   7.0661   7.0661
     7.1871   7.1871   7.2291   7.2564   7.2564   7.2672   7.3448   7.3526
     7.3526   7.4883   7.7338   7.7338   7.9229   7.9229   7.9550   7.9755
     8.1766   8.1766   8.2777   8.3034   8.3034   8.4123   8.4690   8.4690
     8.6745   8.6745   8.8702   9.0375   9.1082   9.5265   9.5265   9.7900
     9.7900  10.4777  10.4877  10.4877  10.5993  10.9355  10.9355  11.2604
    11.2628  11.2628  11.5260  11.6651  11.6651  13.5139  15.1952  15.1952
    18.1374  18.2451  18.2451  18.4536  18.6499  18.6499  19.2047  19.3997
    19.3997  19.5357  19.5357  19.5786  19.6106  19.6106  19.6445  19.7454
    19.7454  19.8677  19.9218  19.9218  20.0020  20.0021  20.0192  20.1373

     occupation numbers 
     1.0000   1.0000   1.0000   1.0000   1.0000   1.0000   1.0000   1.0000
     1.0000   1.0000   1.0000   1.0000   1.0000   1.0000   1.0000   1.0000
     1.0000   1.0000   1.0000   1.0000   1.0000   1.0000   1.0000   1.0000
     1.0000   1.0000   1.0000   1.0000   1.0000   1.0000   1.0000   1.0000
     1.0000   1.0000   1.0000   1.0000   1.0000   1.0000   1.0000   1.0000
     1.0000   1.0000   1.0000   1.0000   1.0000   1.0000   1.0000   1.0000
     1.0000   1.0000   1.0000   1.0000   1.0000   1.0000   1.0000   1.0000
     1.0000   1.0000   1.0000   1.0000   1.0000   1.0000   1.0000   1.0000
     1.0000   1.0000   1.0000   1.0000   1.0000   1.0000   1.0000   1.0000
     1.0000   1.0000   1.0000   1.0000   1.0000   1.0000   1.0000   1.0000
     1.0000   1.0000   1.0000   1.0000   1.0000   1.0000   1.0000   1.0000
     1.0000   1.0000   1.0000   1.0000   1.0000   1.0000   1.0000   1.0000
     1.0000   1.0000   1.0000   1.0000   1.0000   1.0000   1.0000   1.0000
     1.0000   1.0000   1.0000   1.0000   1.0000   1.0000   1.0000   1.0000
     1.0000   1.0000   1.0000   1.0000   1.0000   1.0000   1.0000   1.0000
     1.0000   1.0000   1.0000   1.0000   1.0000   1.0000   0.0000   0.0000
     0.0000   0.0000   0.0000   0.0000   0.0000   0.0000   0.0000   0.0000
     0.0000   0.0000   0.0000   0.0000   0.0000   0.0000   0.0000   0.0000
     0.0000   0.0000   0.0000   0.0000   0.0000   0.0000   0.0000   0.0000

          k =-0.3333 0.0000 0.3333 ( 24236 PWs)   bands (ev):

    -8.0789  -7.4802  -7.1124  -6.5520  -5.9741  -5.6880  -5.3707  -5.0336
    -4.9412  -4.7863  -4.5213  -4.2888  -4.2302  -4.0583  -3.6013  -3.3367
    -2.7727  -2.4062  -2.3662  -2.3087  -2.1973  -2.1631  -2.1154  -1.6590
    -1.6501  -1.3198  -1.1264  -0.9777  -0.6165   0.0084   0.0781   0.1212
     0.2488   0.4736   0.8671   1.0612   1.2142   1.2340   1.2411   1.3985
     1.4697   1.5762   1.8465   1.9118   2.1301   2.5731   2.6814   2.8558
     2.9421   3.5159   3.6577   3.7035   3.7822   3.8813   4.0240   4.1077
     4.1781   4.3889   4.6337   4.8126   4.9653   5.0259   5.1858   5.2416
     5.4022   5.5591   5.6464   5.6705   5.7865   6.0376   6.0776   6.1230
     6.1650   6.2125   6.2570   6.4422   6.4783   6.6053   6.6395   6.8257
     6.8903   6.9523   7.0001   7.0895   7.2156   7.3969   7.5026   7.6787
     7.8490   7.9070   7.9638   8.0648   8.1714   8.2126   8.2406   8.2779
     8.3652   8.4293   8.5216   8.5892   8.7084   8.7467   8.8812   8.9658
     9.0696   9.1371   9.2267   9.3132   9.4515   9.4872   9.5021   9.6471
     9.7250   9.7351   9.9207  10.0232  10.0657  10.1044  10.4835  10.8738
    10.9771  11.1658  11.4928  11.7573  12.2605  13.8631  14.8083  15.1077
    18.0313  18.2085  18.2500  18.3026  18.3765  18.7816  18.9255  19.1047
    19.1489  19.2759  19.3648  19.4766  19.7044  19.8490  19.8774  20.0258
    20.2306  20.3544  20.4165  20.5030  20.5640  20.5749  20.6336  20.6743

     occupation numbers 
     1.0000   1.0000   1.0000   1.0000   1.0000   1.0000   1.0000   1.0000
     1.0000   1.0000   1.0000   1.0000   1.0000   1.0000   1.0000   1.0000
     1.0000   1.0000   1.0000   1.0000   1.0000   1.0000   1.0000   1.0000
     1.0000   1.0000   1.0000   1.0000   1.0000   1.0000   1.0000   1.0000
     1.0000   1.0000   1.0000   1.0000   1.0000   1.0000   1.0000   1.0000
     1.0000   1.0000   1.0000   1.0000   1.0000   1.0000   1.0000   1.0000
     1.0000   1.0000   1.0000   1.0000   1.0000   1.0000   1.0000   1.0000
     1.0000   1.0000   1.0000   1.0000   1.0000   1.0000   1.0000   1.0000
     1.0000   1.0000   1.0000   1.0000   1.0000   1.0000   1.0000   1.0000
     1.0000   1.0000   1.0000   1.0000   1.0000   1.0000   1.0000   1.0000
     1.0000   1.0000   1.0000   1.0000   1.0000   1.0000   1.0000   1.0000
     1.0000   1.0000   1.0000   1.0000   1.0000   1.0000   1.0000   1.0000
     1.0000   1.0000   1.0000   1.0000   1.0000   1.0000   1.0000   1.0000
     1.0000   1.0000   1.0000   1.0000   1.0000   1.0000   1.0000   1.0000
     1.0000   1.0000   1.0000   1.0000   1.0000   1.0000   1.0000   1.0000
     1.0000   1.0000   1.0000   1.0000   1.0000   1.0000   1.0000   0.5000
     0.0000   0.0000   0.0000   0.0000   0.0000   0.0000   0.0000   0.0000
     0.0000   0.0000   0.0000   0.0000   0.0000   0.0000   0.0000   0.0000
     0.0000   0.0000   0.0000   0.0000   0.0000   0.0000   0.0000   0.0000

          k = 0.3333-0.3333 0.3333 ( 24303 PWs)   bands (ev):

    -7.8584  -7.3262  -6.9948  -6.8308  -6.4651  -6.2374  -5.9920  -5.4901
    -4.4586  -4.0461  -3.9375  -3.7221  -3.4306  -3.3581  -3.3186  -3.2449
    -3.0836  -2.8897  -2.6930  -2.4332  -2.0700  -1.8939  -1.8563  -1.7199
    -1.4857  -1.4705  -1.4486  -1.3678  -1.3632  -1.2566  -1.1981  -0.0555
     0.7588   0.8494   0.9494   0.9974   1.0656   1.4230   1.7527   1.7748
     1.8509   1.9475   2.0302   2.2292   2.5849   2.6112   2.6794   2.6992
     2.7083   2.7755   2.9186   3.1710   3.5073   4.0047   4.2401   4.2922
     4.8301   4.8350   4.8580   5.0052   5.0318   5.0535   5.1852   5.2425
     5.2676   5.4262   5.4321   5.5027   5.6845   5.7763   5.8120   6.4766
     6.7296   6.7729   6.9197   6.9216   6.9672   7.0458   7.0629   7.0846
     7.1559   7.1564   7.2128   7.2537   7.2550   7.3210   7.3384   7.3509
     7.3624   7.4677   7.7201   7.7377   7.8342   7.9138   7.9417   7.9518
     8.1318   8.1487   8.2513   8.2818   8.3357   8.3998   8.4056   8.4685
     8.6973   8.7132   8.9507   8.9973   9.1127   9.5356   9.5701   9.7063
     9.8542  10.4052  10.5025  10.5075  10.5567  10.9259  10.9420  11.2035
    11.2259  11.2715  11.4727  11.7131  11.7439  13.8851  14.8803  15.1938
    18.0917  18.2643  18.3392  18.5319  18.6499  18.7242  19.1972  19.3828
    19.4444  19.5043  19.5307  19.5502  19.6021  19.6286  19.6599  19.7119
    19.7459  19.7928  19.9056  19.9241  19.9741  19.9870  20.0444  20.1491

     occupation numbers 
     1.0000   1.0000   1.0000   1.0000   1.0000   1.0000   1.0000   1.0000
     1.0000   1.0000   1.0000   1.0000   1.0000   1.0000   1.0000   1.0000
     1.0000   1.0000   1.0000   1.0000   1.0000   1.0000   1.0000   1.0000
     1.0000   1.0000   1.0000   1.0000   1.0000   1.0000   1.0000   1.0000
     1.0000   1.0000   1.0000   1.0000   1.0000   1.0000   1.0000   1.0000
     1.0000   1.0000   1.0000   1.0000   1.0000   1.0000   1.0000   1.0000
     1.0000   1.0000   1.0000   1.0000   1.0000   1.0000   1.0000   1.0000
     1.0000   1.0000   1.0000   1.0000   1.0000   1.0000   1.0000   1.0000
     1.0000   1.0000   1.0000   1.0000   1.0000   1.0000   1.0000   1.0000
     1.0000   1.0000   1.0000   1.0000   1.0000   1.0000   1.0000   1.0000
     1.0000   1.0000   1.0000   1.0000   1.0000   1.0000   1.0000   1.0000
     1.0000   1.0000   1.0000   1.0000   1.0000   1.0000   1.0000   1.0000
     1.0000   1.0000   1.0000   1.0000   1.0000   1.0000   1.0000   1.0000
     1.0000   1.0000   1.0000   1.0000   1.0000   1.0000   1.0000   1.0000
     1.0000   1.0000   1.0000   1.0000   1.0000   1.0000   1.0000   1.0000
     1.0000   1.0000   1.0000   1.0000   1.0000   1.0000   1.0000   0.0000
     0.0000   0.0000   0.0000   0.0000   0.0000   0.0000   0.0000   0.0000
     0.0000   0.0000   0.0000   0.0000   0.0000   0.0000   0.0000   0.0000
     0.0000   0.0000   0.0000   0.0000   0.0000   0.0000   0.0000   0.0000

     the spin up/dw Fermi energies are    15.1096   15.1096 ev

!    total energy              =    -724.77105173 Ry
     Harris-Foulkes estimate   =    -724.77105133 Ry
     estimated scf accuracy    <       0.00000049 Ry

     The total energy is the sum of the following terms:

     one-electron contribution =     232.15286493 Ry
     hartree contribution      =      69.46711413 Ry
     xc contribution           =    -226.37130111 Ry
     ewald contribution        =    -800.01965669 Ry
     smearing contrib. (-TS)   =      -0.00007298 Ry

     total magnetization       =    -0.00 Bohr mag/cell
     absolute magnetization    =     0.00 Bohr mag/cell

     convergence has been achieved in   9 iterations

     Writing output data file di.save
 
     init_run     :      1.27s CPU      1.70s WALL (       1 calls)
     electrons    :     24.96s CPU     25.37s WALL (       1 calls)

     Called by init_run:
     wfcinit      :      0.75s CPU      0.84s WALL (       1 calls)
     wfcinit:atom :      0.00s CPU      0.01s WALL (       2 calls)
     wfcinit:wfcr :      0.70s CPU      0.78s WALL (       2 calls)
     potinit      :      0.08s CPU      0.09s WALL (       1 calls)

     Called by electrons:
     c_bands      :     23.35s CPU     23.74s WALL (       9 calls)
     sum_band     :      1.09s CPU      1.10s WALL (       9 calls)
     v_of_rho     :      0.36s CPU      0.38s WALL (      10 calls)
     v_h          :      0.01s CPU      0.01s WALL (      10 calls)
     v_xc         :      0.35s CPU      0.37s WALL (      10 calls)
     mix_rho      :      0.06s CPU      0.06s WALL (       9 calls)

     Called by c_bands:
     init_us_2    :      0.17s CPU      0.17s WALL (      38 calls)
     cegterg      :     21.21s CPU     21.57s WALL (      18 calls)

     Called by sum_band:

     Called by *egterg:
     h_psi        :      8.44s CPU      8.58s WALL (     128 calls)
     g_psi        :      0.05s CPU      0.05s WALL (     108 calls)
     cdiaghg      :      9.08s CPU      9.13s WALL (     126 calls)
     cegterg:over :      1.64s CPU      1.65s WALL (     108 calls)
     cegterg:upda :      1.27s CPU      1.28s WALL (     108 calls)
     cegterg:last :      0.45s CPU      0.46s WALL (      18 calls)

     Called by h_psi:
     h_psi:pot    :      8.34s CPU      8.48s WALL (     128 calls)
     h_psi:calbec :      1.81s CPU      1.83s WALL (     128 calls)
     vloc_psi     :      4.64s CPU      4.73s WALL (     128 calls)
     add_vuspsi   :      1.89s CPU      1.91s WALL (     128 calls)

     General routines
     calbec       :      1.81s CPU      1.83s WALL (     128 calls)
     fft          :      0.11s CPU      0.33s WALL (     207 calls)
     fftw         :      4.95s CPU      4.96s WALL (   18366 calls)
 
     Parallel routines
     fft_scatter  :      1.48s CPU      1.47s WALL (   18573 calls)
 
     PWSCF        :    29.08s CPU        32.58s WALL

 
   This run was terminated on:  10:27:55  12May2020            

=------------------------------------------------------------------------------=
   JOB DONE.
=------------------------------------------------------------------------------=
