
     Program PWSCF v.6.1 (svn rev. 13369) starts on 12May2020 at 10:26: 5 

     This program is part of the open-source Quantum ESPRESSO suite
     for quantum simulation of materials; please cite
         "P. Giannozzi et al., J. Phys.:Condens. Matter 21 395502 (2009);
          URL http://www.quantum-espresso.org", 
     in publications or presentations arising from this work. More details at
     http://www.quantum-espresso.org/quote

     Parallel version (MPI), running on    96 processors
     K-points division:     npool     =       6
     R & G space division:  proc/nbgrp/npool/nimage =      16
     Reading input from scf.in
Warning: card &IONS ignored
Warning: card / ignored

     Current dimensions of program PWSCF are:
     Max number of different atomic species (ntypx) = 10
     Max number of k-points (npk) =  40000
     Max angular momentum in pseudopotentials (lmaxx) =  3

     Subspace diagonalization in iterative solution of the eigenvalue problem:
     a serial algorithm will be used

 
     Parallelization info
     --------------------
     sticks:   dense  smooth     PW     G-vecs:    dense   smooth      PW
     Min         252     252     67                12125    12125    1669
     Max         254     254     68                12129    12129    1672
     Sum        4049    4049   1085               194039   194039   26745
 


     bravais-lattice index     =            1
     lattice parameter (alat)  =      13.4862  a.u.
     unit-cell volume          =    2452.8358 (a.u.)^3
     number of atoms/cell      =           63
     number of atomic types    =            2
     number of electrons       =       254.00 (up: 127.00, down: 127.00)
     number of Kohn-Sham states=          152
     kinetic-energy cutoff     =      70.0000  Ry
     charge density cutoff     =     280.0000  Ry
     convergence threshold     =      1.0E-06
     mixing beta               =       0.5000
     number of iterations used =            8  plain     mixing
     Exchange-correlation      = PBE ( 1  4  3  4 0 0)

     celldm(1)=  13.486197  celldm(2)=   0.000000  celldm(3)=   0.000000
     celldm(4)=   0.000000  celldm(5)=   0.000000  celldm(6)=   0.000000

     crystal axes: (cart. coord. in units of alat)
               a(1) = (   1.000000   0.000000   0.000000 )  
               a(2) = (   0.000000   1.000000   0.000000 )  
               a(3) = (   0.000000   0.000000   1.000000 )  

     reciprocal axes: (cart. coord. in units 2 pi/alat)
               b(1) = (  1.000000  0.000000  0.000000 )  
               b(2) = (  0.000000  1.000000  0.000000 )  
               b(3) = (  0.000000  0.000000  1.000000 )  


     PseudoPot. # 1 for C  read from file:
     /home/tjsmart/Pseudo/C_ONCV_PBE-1.0.upf
     MD5 check sum: 72b63e32b2fd29504de26a4901699f60
     Pseudo is Norm-conserving, Zval =  4.0
     Generated using ONCVPSP code by D. R. Hamann
     Using radial grid of 1248 points,  4 beta functions with: 
                l(1) =   0
                l(2) =   0
                l(3) =   1
                l(4) =   1

     PseudoPot. # 2 for N  read from file:
     /home/tjsmart/Pseudo/N_ONCV_PBE-1.0.upf
     MD5 check sum: 09890da6b2972017450f7114a6086fad
     Pseudo is Norm-conserving, Zval =  5.0
     Generated using ONCVPSP code by D. R. Hamann
     Using radial grid of 1058 points,  4 beta functions with: 
                l(1) =   0
                l(2) =   0
                l(3) =   1
                l(4) =   1

     atomic species   valence    mass     pseudopotential
        C              4.00    12.01110     C ( 1.00)
        N              5.00    14.00670     N ( 1.00)

     Starting magnetic structure 
     atomic species   magnetization
        C            0.200
        N            0.200

      6 Sym. Ops. (no inversion) found


                                    s                        frac. trans.

      isym =  1     identity                                     

 cryst.   s( 1) = (     1          0          0      )
                  (     0          1          0      )
                  (     0          0          1      )

 cart.    s( 1) = (  1.0000000  0.0000000  0.0000000 )
                  (  0.0000000  1.0000000  0.0000000 )
                  (  0.0000000  0.0000000  1.0000000 )


      isym =  2     120 deg rotation - cart. axis [-1,-1,-1]     

 cryst.   s( 2) = (     0          0          1      )
                  (     1          0          0      )
                  (     0          1          0      )

 cart.    s( 2) = (  0.0000000  1.0000000  0.0000000 )
                  (  0.0000000  0.0000000  1.0000000 )
                  (  1.0000000  0.0000000  0.0000000 )


      isym =  3     120 deg rotation - cart. axis [1,1,1]        

 cryst.   s( 3) = (     0          1          0      )
                  (     0          0          1      )
                  (     1          0          0      )

 cart.    s( 3) = (  0.0000000  0.0000000  1.0000000 )
                  (  1.0000000  0.0000000  0.0000000 )
                  (  0.0000000  1.0000000  0.0000000 )


      isym =  4     inv. 180 deg rotation - cart. axis [1,-1,0]  

 cryst.   s( 4) = (     0          1          0      )
                  (     1          0          0      )
                  (     0          0          1      )

 cart.    s( 4) = (  0.0000000  1.0000000  0.0000000 )
                  (  1.0000000  0.0000000  0.0000000 )
                  (  0.0000000  0.0000000  1.0000000 )


      isym =  5     inv. 180 deg rotation - cart. axis [-1,0,1]  

 cryst.   s( 5) = (     0          0          1      )
                  (     0          1          0      )
                  (     1          0          0      )

 cart.    s( 5) = (  0.0000000  0.0000000  1.0000000 )
                  (  0.0000000  1.0000000  0.0000000 )
                  (  1.0000000  0.0000000  0.0000000 )


      isym =  6     inv. 180 deg rotation - cart. axis [0,1,-1]  

 cryst.   s( 6) = (     1          0          0      )
                  (     0          0          1      )
                  (     0          1          0      )

 cart.    s( 6) = (  1.0000000  0.0000000  0.0000000 )
                  (  0.0000000  0.0000000  1.0000000 )
                  (  0.0000000  1.0000000  0.0000000 )


     point group C_3v (3m)  
     there are  3 classes
     the character table:

       E     2C3   3s_v 
A_1    1.00  1.00  1.00
A_2    1.00  1.00 -1.00
E      2.00 -1.00  0.00

     the symmetry operations in each class and the name of the first element:

     E        1
          identity                                               
     2C3      2    3
          120 deg rotation - cart. axis [-1,-1,-1]               
     3s_v     4    5    6
          inv. 180 deg rotation - cart. axis [1,-1,0]            

   Cartesian axes

     site n.     atom                  positions (alat units)
         1           C   tau(   1) = (   0.3757705   0.3757705   0.8735987  )
         2           C   tau(   2) = (   0.5002199   0.0003840   0.0003840  )
         3           C   tau(   3) = (   0.4999962  -0.0003597   0.4999962  )
         4           C   tau(   4) = (   0.0003840   0.5002199   0.0003840  )
         5           C   tau(   5) = (  -0.0003597   0.4999962   0.4999962  )
         6           C   tau(   6) = (  -0.0001200  -0.0001200  -0.0001200  )
         7           C   tau(   7) = (   0.0003840   0.0003840   0.5002199  )
         8           C   tau(   8) = (   0.2504072   0.2504072  -0.0009686  )
         9           C   tau(   9) = (   0.2512387   0.2512387   0.4960307  )
        10           C   tau(  10) = (   0.2502040   0.7491127   0.0008776  )
        11           C   tau(  11) = (   0.2514249   0.7484436   0.5020122  )
        12           C   tau(  12) = (   0.7491127   0.2502040   0.0008776  )
        13           C   tau(  13) = (   0.7484436   0.2514249   0.5020122  )
        14           C   tau(  14) = (   0.7495384   0.7495384  -0.0007156  )
        15           C   tau(  15) = (   0.4999962   0.4999962  -0.0003597  )
        16           C   tau(  16) = (   0.7486769   0.7486769   0.4984125  )
        17           C   tau(  17) = (   0.5020122   0.2514249   0.7484436  )
        18           C   tau(  18) = (   0.5020122   0.7484436   0.2514249  )
        19           C   tau(  19) = (   0.4984125   0.7486769   0.7486769  )
        20           C   tau(  20) = (  -0.0009686   0.2504072   0.2504072  )
        21           C   tau(  21) = (   0.0008776   0.2502040   0.7491127  )
        22           C   tau(  22) = (   0.0008776   0.7491127   0.2502040  )
        23           C   tau(  23) = (  -0.0007156   0.7495384   0.7495384  )
        24           C   tau(  24) = (   0.2512387   0.4960307   0.2512387  )
        25           C   tau(  25) = (   0.2514249   0.5020122   0.7484436  )
        26           C   tau(  26) = (   0.2504072  -0.0009686   0.2504072  )
        27           C   tau(  27) = (   0.2502040   0.0008776   0.7491127  )
        28           C   tau(  28) = (   0.7484436   0.5020122   0.2514249  )
        29           C   tau(  29) = (   0.7486769   0.4984125   0.7486769  )
        30           C   tau(  30) = (   0.4960307   0.2512387   0.2512387  )
        31           C   tau(  31) = (   0.7491127   0.0008776   0.2502040  )
        32           C   tau(  32) = (   0.6243271   0.8738160   0.6243271  )
        33           C   tau(  33) = (   0.6359211   0.3634580   0.6359211  )
        34           C   tau(  34) = (   0.3757296   0.8762176   0.8762176  )
        35           C   tau(  35) = (   0.3757705   0.8735987   0.3757705  )
        36           C   tau(  36) = (   0.8762176   0.3757296   0.8762176  )
        37           C   tau(  37) = (   0.8735987   0.3757705   0.3757705  )
        38           C   tau(  38) = (   0.8745330   0.8745330   0.8745330  )
        39           C   tau(  39) = (   0.8762176   0.8762176   0.3757296  )
        40           C   tau(  40) = (   0.1253729   0.1253729   0.8743888  )
        41           C   tau(  41) = (   0.1244182   0.1244182   0.3748717  )
        42           C   tau(  42) = (   0.1237553   0.6243718   0.8760864  )
        43           C   tau(  43) = (   0.1266863   0.6233579   0.3763697  )
        44           C   tau(  44) = (   0.6243718   0.1237553   0.8760864  )
        45           C   tau(  45) = (   0.6233579   0.1266863   0.3763697  )
        46           C   tau(  46) = (   0.6243718   0.8760864   0.1237553  )
        47           C   tau(  47) = (   0.6243271   0.6243271   0.8738160  )
        48           C   tau(  48) = (   0.3748717   0.1244182   0.1244182  )
        49           C   tau(  49) = (   0.3763697   0.1266863   0.6233579  )
        50           C   tau(  50) = (   0.3763697   0.6233579   0.1266863  )
        51           C   tau(  51) = (   0.3634580   0.6359211   0.6359211  )
        52           C   tau(  52) = (   0.8743888   0.1253729   0.1253729  )
        53           C   tau(  53) = (   0.8760864   0.1237553   0.6243718  )
        54           C   tau(  54) = (   0.8760864   0.6243718   0.1237553  )
        55           C   tau(  55) = (   0.8738160   0.6243271   0.6243271  )
        56           C   tau(  56) = (   0.1244182   0.3748717   0.1244182  )
        57           C   tau(  57) = (   0.1266863   0.3763697   0.6233579  )
        58           C   tau(  58) = (   0.1253729   0.8743888   0.1253729  )
        59           C   tau(  59) = (   0.1237553   0.8760864   0.6243718  )
        60           C   tau(  60) = (   0.6233579   0.3763697   0.1266863  )
        61           C   tau(  61) = (   0.6359211   0.6359211   0.3634580  )
        62           C   tau(  62) = (   0.7495384  -0.0007156   0.7495384  )
        63           N   tau(  63) = (   0.3671629   0.3671629   0.3671629  )

   Crystallographic axes

     site n.     atom                  positions (cryst. coord.)
         1           C   tau(   1) = (  0.3757705  0.3757705  0.8735987  )
         2           C   tau(   2) = (  0.5002199  0.0003840  0.0003840  )
         3           C   tau(   3) = (  0.4999962 -0.0003597  0.4999962  )
         4           C   tau(   4) = (  0.0003840  0.5002199  0.0003840  )
         5           C   tau(   5) = ( -0.0003597  0.4999962  0.4999962  )
         6           C   tau(   6) = ( -0.0001200 -0.0001200 -0.0001200  )
         7           C   tau(   7) = (  0.0003840  0.0003840  0.5002199  )
         8           C   tau(   8) = (  0.2504072  0.2504072 -0.0009686  )
         9           C   tau(   9) = (  0.2512387  0.2512387  0.4960307  )
        10           C   tau(  10) = (  0.2502040  0.7491127  0.0008776  )
        11           C   tau(  11) = (  0.2514249  0.7484436  0.5020122  )
        12           C   tau(  12) = (  0.7491127  0.2502040  0.0008776  )
        13           C   tau(  13) = (  0.7484436  0.2514249  0.5020122  )
        14           C   tau(  14) = (  0.7495384  0.7495384 -0.0007156  )
        15           C   tau(  15) = (  0.4999962  0.4999962 -0.0003597  )
        16           C   tau(  16) = (  0.7486769  0.7486769  0.4984125  )
        17           C   tau(  17) = (  0.5020122  0.2514249  0.7484436  )
        18           C   tau(  18) = (  0.5020122  0.7484436  0.2514249  )
        19           C   tau(  19) = (  0.4984125  0.7486769  0.7486769  )
        20           C   tau(  20) = ( -0.0009686  0.2504072  0.2504072  )
        21           C   tau(  21) = (  0.0008776  0.2502040  0.7491127  )
        22           C   tau(  22) = (  0.0008776  0.7491127  0.2502040  )
        23           C   tau(  23) = ( -0.0007156  0.7495384  0.7495384  )
        24           C   tau(  24) = (  0.2512387  0.4960307  0.2512387  )
        25           C   tau(  25) = (  0.2514249  0.5020122  0.7484436  )
        26           C   tau(  26) = (  0.2504072 -0.0009686  0.2504072  )
        27           C   tau(  27) = (  0.2502040  0.0008776  0.7491127  )
        28           C   tau(  28) = (  0.7484436  0.5020122  0.2514249  )
        29           C   tau(  29) = (  0.7486769  0.4984125  0.7486769  )
        30           C   tau(  30) = (  0.4960307  0.2512387  0.2512387  )
        31           C   tau(  31) = (  0.7491127  0.0008776  0.2502040  )
        32           C   tau(  32) = (  0.6243271  0.8738160  0.6243271  )
        33           C   tau(  33) = (  0.6359211  0.3634580  0.6359211  )
        34           C   tau(  34) = (  0.3757296  0.8762176  0.8762176  )
        35           C   tau(  35) = (  0.3757705  0.8735987  0.3757705  )
        36           C   tau(  36) = (  0.8762176  0.3757296  0.8762176  )
        37           C   tau(  37) = (  0.8735987  0.3757705  0.3757705  )
        38           C   tau(  38) = (  0.8745330  0.8745330  0.8745330  )
        39           C   tau(  39) = (  0.8762176  0.8762176  0.3757296  )
        40           C   tau(  40) = (  0.1253729  0.1253729  0.8743888  )
        41           C   tau(  41) = (  0.1244182  0.1244182  0.3748717  )
        42           C   tau(  42) = (  0.1237553  0.6243718  0.8760864  )
        43           C   tau(  43) = (  0.1266863  0.6233579  0.3763697  )
        44           C   tau(  44) = (  0.6243718  0.1237553  0.8760864  )
        45           C   tau(  45) = (  0.6233579  0.1266863  0.3763697  )
        46           C   tau(  46) = (  0.6243718  0.8760864  0.1237553  )
        47           C   tau(  47) = (  0.6243271  0.6243271  0.8738160  )
        48           C   tau(  48) = (  0.3748717  0.1244182  0.1244182  )
        49           C   tau(  49) = (  0.3763697  0.1266863  0.6233579  )
        50           C   tau(  50) = (  0.3763697  0.6233579  0.1266863  )
        51           C   tau(  51) = (  0.3634580  0.6359211  0.6359211  )
        52           C   tau(  52) = (  0.8743888  0.1253729  0.1253729  )
        53           C   tau(  53) = (  0.8760864  0.1237553  0.6243718  )
        54           C   tau(  54) = (  0.8760864  0.6243718  0.1237553  )
        55           C   tau(  55) = (  0.8738160  0.6243271  0.6243271  )
        56           C   tau(  56) = (  0.1244182  0.3748717  0.1244182  )
        57           C   tau(  57) = (  0.1266863  0.3763697  0.6233579  )
        58           C   tau(  58) = (  0.1253729  0.8743888  0.1253729  )
        59           C   tau(  59) = (  0.1237553  0.8760864  0.6243718  )
        60           C   tau(  60) = (  0.6233579  0.3763697  0.1266863  )
        61           C   tau(  61) = (  0.6359211  0.6359211  0.3634580  )
        62           C   tau(  62) = (  0.7495384 -0.0007156  0.7495384  )
        63           N   tau(  63) = (  0.3671629  0.3671629  0.3671629  )

     number of k points=     6  Marzari-Vanderbilt smearing, width (Ry)=  0.0010
                       cart. coord. in units 2pi/alat
        k(    1) = (   0.0000000   0.0000000   0.0000000), wk =   0.0370370
        k(    2) = (   0.0000000   0.0000000   0.3333333), wk =   0.2222222
        k(    3) = (   0.0000000   0.3333333   0.3333333), wk =   0.2222222
        k(    4) = (   0.3333333   0.3333333   0.3333333), wk =   0.0740741
        k(    5) = (  -0.3333333   0.0000000   0.3333333), wk =   0.2222222
        k(    6) = (   0.3333333  -0.3333333   0.3333333), wk =   0.2222222

                       cryst. coord.
        k(    1) = (   0.0000000   0.0000000   0.0000000), wk =   0.0370370
        k(    2) = (   0.0000000   0.0000000   0.3333333), wk =   0.2222222
        k(    3) = (   0.0000000   0.3333333   0.3333333), wk =   0.2222222
        k(    4) = (   0.3333333   0.3333333   0.3333333), wk =   0.0740741
        k(    5) = (  -0.3333333   0.0000000   0.3333333), wk =   0.2222222
        k(    6) = (   0.3333333  -0.3333333   0.3333333), wk =   0.2222222

     Dense  grid:   194039 G-vectors     FFT dimensions: (  72,  72,  72)

     Estimated max dynamical RAM per process >      60.23MB

     Estimated total allocated dynamical RAM >    5782.56MB
     Generating pointlists ...
     new r_m :   0.0857 (alat units)  1.1555 (a.u.) for type    1
     new r_m :   0.0860 (alat units)  1.1601 (a.u.) for type    2

     Initial potential from superposition of free atoms

     starting charge  252.99722, renormalised to  254.00000
     Starting wfc are  252 randomized atomic wfcs

     total cpu time spent up to now is        3.8 secs

     per-process dynamical memory:    59.5 Mb

     Self-consistent Calculation

     iteration #  1     ecut=    70.00 Ry     beta=0.50
     Davidson diagonalization with overlap
     ethr =  1.00E-02,  avg # of iterations =  3.0

     total cpu time spent up to now is        6.1 secs

     total energy              =    -724.33611916 Ry
     Harris-Foulkes estimate   =    -724.78334686 Ry
     estimated scf accuracy    <       4.23489736 Ry

     total magnetization       =     0.00 Bohr mag/cell
     absolute magnetization    =     0.90 Bohr mag/cell

     iteration #  2     ecut=    70.00 Ry     beta=0.50
     Davidson diagonalization with overlap
     ethr =  1.67E-03,  avg # of iterations =  2.0

     total cpu time spent up to now is        7.6 secs

     total energy              =    -724.66287975 Ry
     Harris-Foulkes estimate   =    -724.58046755 Ry
     estimated scf accuracy    <       0.67016478 Ry

     total magnetization       =     0.00 Bohr mag/cell
     absolute magnetization    =     0.35 Bohr mag/cell

     iteration #  3     ecut=    70.00 Ry     beta=0.50
     Davidson diagonalization with overlap
     ethr =  2.64E-04,  avg # of iterations =  8.8

     total cpu time spent up to now is       11.6 secs

     total energy              =    -724.73237860 Ry
     Harris-Foulkes estimate   =    -724.77346766 Ry
     estimated scf accuracy    <       0.15209926 Ry

     total magnetization       =     0.00 Bohr mag/cell
     absolute magnetization    =     0.11 Bohr mag/cell

     iteration #  4     ecut=    70.00 Ry     beta=0.50
     Davidson diagonalization with overlap
     ethr =  5.99E-05,  avg # of iterations =  7.5

     total cpu time spent up to now is       15.4 secs

     total energy              =    -724.77076896 Ry
     Harris-Foulkes estimate   =    -724.76837062 Ry
     estimated scf accuracy    <       0.01315388 Ry

     total magnetization       =     0.00 Bohr mag/cell
     absolute magnetization    =     0.07 Bohr mag/cell

     iteration #  5     ecut=    70.00 Ry     beta=0.50
     Davidson diagonalization with overlap
     ethr =  5.18E-06,  avg # of iterations =  8.1

     total cpu time spent up to now is       19.8 secs

     total energy              =    -724.77407194 Ry
     Harris-Foulkes estimate   =    -724.77379917 Ry
     estimated scf accuracy    <       0.00153004 Ry

     total magnetization       =     0.00 Bohr mag/cell
     absolute magnetization    =     0.04 Bohr mag/cell

     iteration #  6     ecut=    70.00 Ry     beta=0.50
     Davidson diagonalization with overlap
     ethr =  6.02E-07,  avg # of iterations =  5.4

     total cpu time spent up to now is       22.9 secs

     total energy              =    -724.77432776 Ry
     Harris-Foulkes estimate   =    -724.77435225 Ry
     estimated scf accuracy    <       0.00020142 Ry

     total magnetization       =     0.00 Bohr mag/cell
     absolute magnetization    =     0.02 Bohr mag/cell

     iteration #  7     ecut=    70.00 Ry     beta=0.50
     Davidson diagonalization with overlap
     ethr =  7.93E-08,  avg # of iterations =  3.0

     total cpu time spent up to now is       24.9 secs

     total energy              =    -724.77438471 Ry
     Harris-Foulkes estimate   =    -724.77439392 Ry
     estimated scf accuracy    <       0.00003684 Ry

     total magnetization       =     0.00 Bohr mag/cell
     absolute magnetization    =     0.01 Bohr mag/cell

     iteration #  8     ecut=    70.00 Ry     beta=0.50
     Davidson diagonalization with overlap
     ethr =  1.45E-08,  avg # of iterations =  2.8

     total cpu time spent up to now is       26.7 secs

     total energy              =    -724.77439278 Ry
     Harris-Foulkes estimate   =    -724.77439271 Ry
     estimated scf accuracy    <       0.00000291 Ry

     total magnetization       =     0.00 Bohr mag/cell
     absolute magnetization    =     0.01 Bohr mag/cell

     iteration #  9     ecut=    70.00 Ry     beta=0.50
     Davidson diagonalization with overlap
     ethr =  1.15E-09,  avg # of iterations =  3.1
 
     Magnetic moment per site:
     atom:    1    charge:    1.8344    magn:   -0.0000    constr:    0.0000
     atom:    2    charge:    1.8545    magn:   -0.0000    constr:    0.0000
     atom:    3    charge:    1.8429    magn:    0.0000    constr:    0.0000
     atom:    4    charge:    1.8545    magn:   -0.0000    constr:    0.0000
     atom:    5    charge:    1.8429    magn:    0.0000    constr:    0.0000
     atom:    6    charge:    1.8322    magn:    0.0000    constr:    0.0000
     atom:    7    charge:    1.8545    magn:   -0.0000    constr:    0.0000
     atom:    8    charge:    1.8354    magn:    0.0000    constr:    0.0000
     atom:    9    charge:    1.8101    magn:   -0.0001    constr:    0.0000
     atom:   10    charge:    1.8304    magn:    0.0000    constr:    0.0000
     atom:   11    charge:    1.8448    magn:    0.0000    constr:    0.0000
     atom:   12    charge:    1.8304    magn:    0.0000    constr:    0.0000
     atom:   13    charge:    1.8448    magn:    0.0000    constr:    0.0000
     atom:   14    charge:    1.8348    magn:    0.0000    constr:    0.0000
     atom:   15    charge:    1.8429    magn:    0.0000    constr:    0.0000
     atom:   16    charge:    1.8425    magn:    0.0000    constr:    0.0000
     atom:   17    charge:    1.8448    magn:    0.0000    constr:    0.0000
     atom:   18    charge:    1.8448    magn:    0.0000    constr:    0.0000
     atom:   19    charge:    1.8425    magn:    0.0000    constr:    0.0000
     atom:   20    charge:    1.8354    magn:    0.0000    constr:    0.0000
     atom:   21    charge:    1.8304    magn:    0.0000    constr:    0.0000
     atom:   22    charge:    1.8304    magn:    0.0000    constr:    0.0000
     atom:   23    charge:    1.8348    magn:    0.0000    constr:    0.0000
     atom:   24    charge:    1.8101    magn:   -0.0001    constr:    0.0000
     atom:   25    charge:    1.8448    magn:    0.0000    constr:    0.0000
     atom:   26    charge:    1.8354    magn:    0.0000    constr:    0.0000
     atom:   27    charge:    1.8304    magn:    0.0000    constr:    0.0000
     atom:   28    charge:    1.8448    magn:    0.0000    constr:    0.0000
     atom:   29    charge:    1.8425    magn:    0.0000    constr:    0.0000
     atom:   30    charge:    1.8101    magn:   -0.0001    constr:    0.0000
     atom:   31    charge:    1.8304    magn:    0.0000    constr:    0.0000
     atom:   32    charge:    1.8352    magn:    0.0000    constr:    0.0000
     atom:   33    charge:    1.8528    magn:    0.0000    constr:    0.0000
     atom:   34    charge:    1.8323    magn:    0.0000    constr:    0.0000
     atom:   35    charge:    1.8344    magn:   -0.0000    constr:    0.0000
     atom:   36    charge:    1.8323    magn:    0.0000    constr:    0.0000
     atom:   37    charge:    1.8344    magn:   -0.0000    constr:    0.0000
     atom:   38    charge:    1.8386    magn:    0.0000    constr:    0.0000
     atom:   39    charge:    1.8323    magn:    0.0000    constr:    0.0000
     atom:   40    charge:    1.8383    magn:    0.0000    constr:    0.0000
     atom:   41    charge:    1.8438    magn:    0.0000    constr:    0.0000
     atom:   42    charge:    1.8372    magn:    0.0000    constr:    0.0000
     atom:   43    charge:    1.8328    magn:    0.0000    constr:    0.0000
     atom:   44    charge:    1.8372    magn:    0.0000    constr:    0.0000
     atom:   45    charge:    1.8328    magn:    0.0000    constr:    0.0000
     atom:   46    charge:    1.8372    magn:    0.0000    constr:    0.0000
     atom:   47    charge:    1.8352    magn:    0.0000    constr:    0.0000
     atom:   48    charge:    1.8438    magn:    0.0000    constr:    0.0000
     atom:   49    charge:    1.8328    magn:    0.0000    constr:    0.0000
     atom:   50    charge:    1.8328    magn:    0.0000    constr:    0.0000
     atom:   51    charge:    1.8528    magn:    0.0000    constr:    0.0000
     atom:   52    charge:    1.8383    magn:    0.0000    constr:    0.0000
     atom:   53    charge:    1.8372    magn:    0.0000    constr:    0.0000
     atom:   54    charge:    1.8372    magn:    0.0000    constr:    0.0000
     atom:   55    charge:    1.8352    magn:    0.0000    constr:    0.0000
     atom:   56    charge:    1.8438    magn:    0.0000    constr:    0.0000
     atom:   57    charge:    1.8328    magn:    0.0000    constr:    0.0000
     atom:   58    charge:    1.8383    magn:    0.0000    constr:    0.0000
     atom:   59    charge:    1.8372    magn:    0.0000    constr:    0.0000
     atom:   60    charge:    1.8328    magn:    0.0000    constr:    0.0000
     atom:   61    charge:    1.8528    magn:    0.0000    constr:    0.0000
     atom:   62    charge:    1.8348    magn:    0.0000    constr:    0.0000
     atom:   63    charge:    2.9356    magn:    0.0007    constr:    0.0000

     total cpu time spent up to now is       29.0 secs

     End of self-consistent calculation

 ------ SPIN UP ------------


          k = 0.0000 0.0000 0.0000 ( 24207 PWs)   bands (ev):

    -8.5528  -6.9057  -6.2880  -6.2880  -6.1781  -6.1781  -5.8847  -4.9152
    -4.1455  -4.1455  -4.1132  -4.1132  -4.0326  -4.0311  -4.0311  -3.9476
    -3.8812  -3.8812  -3.3668  -2.9651  -2.6830  -2.6830  -2.1047  -0.3771
    -0.3771  -0.3568  -0.3262  -0.1093   0.1620   0.1620   0.2703   0.2703
     0.3457   0.5869   0.8115   0.8115   0.9549   0.9549   0.9569   1.0145
     1.0147   1.0147   1.3228   1.3228   3.0624   3.9254   3.9254   4.0350
     4.1825   4.1825   4.1825   4.2279   4.2340   4.2340   4.3955   4.3955
     4.4560   4.4560   4.5428   4.6305   4.6305   4.6309   4.6338   4.7381
     4.7381   4.8662   4.9263   4.9263   5.0315   5.1840   5.1840   5.2626
     5.3156   5.3156   5.3500   5.3794   5.3794   6.0033   6.0033   6.0394
     6.6027   6.6027   6.6848   6.9766   6.9932   6.9932   7.5236   8.3085
     8.3085   8.3669   8.4255   8.4255   8.6166   8.6166   8.7466   8.7728
     8.7728   8.7853   8.8352   8.8352   8.8469   9.2257   9.2333   9.2333
     9.6513   9.6513   9.8416   9.8557   9.8750   9.8750   9.8788   9.9245
     9.9245   9.9433   9.9589   9.9589  10.0466  10.0466  10.2464  10.2464
    10.2503  11.0769  12.2998  12.4251  12.4251  13.9939  15.2756  15.2756
    17.2902  17.3276  17.3276  17.4716  17.5276  17.5276  17.7977  17.8836
    17.8836  17.9838  17.9838  18.3447  18.8995  18.8995  18.9343  20.6094
    20.7544  20.7544  20.8012  20.8799  20.8799  20.9666  20.9666  20.9731

     occupation numbers 
     1.0000   1.0000   1.0000   1.0000   1.0000   1.0000   1.0000   1.0000
     1.0000   1.0000   1.0000   1.0000   1.0000   1.0000   1.0000   1.0000
     1.0000   1.0000   1.0000   1.0000   1.0000   1.0000   1.0000   1.0000
     1.0000   1.0000   1.0000   1.0000   1.0000   1.0000   1.0000   1.0000
     1.0000   1.0000   1.0000   1.0000   1.0000   1.0000   1.0000   1.0000
     1.0000   1.0000   1.0000   1.0000   1.0000   1.0000   1.0000   1.0000
     1.0000   1.0000   1.0000   1.0000   1.0000   1.0000   1.0000   1.0000
     1.0000   1.0000   1.0000   1.0000   1.0000   1.0000   1.0000   1.0000
     1.0000   1.0000   1.0000   1.0000   1.0000   1.0000   1.0000   1.0000
     1.0000   1.0000   1.0000   1.0000   1.0000   1.0000   1.0000   1.0000
     1.0000   1.0000   1.0000   1.0000   1.0000   1.0000   1.0000   1.0000
     1.0000   1.0000   1.0000   1.0000   1.0000   1.0000   1.0000   1.0000
     1.0000   1.0000   1.0000   1.0000   1.0000   1.0000   1.0000   1.0000
     1.0000   1.0000   1.0000   1.0000   1.0000   1.0000   1.0000   1.0000
     1.0000   1.0000   1.0000   1.0000   1.0000   1.0000   1.0000   1.0000
     1.0000   1.0000   1.0000   1.0000   1.0000   1.0000   0.0000   0.0000
     0.0000   0.0000   0.0000   0.0000   0.0000   0.0000   0.0000   0.0000
     0.0000   0.0000   0.0000   0.0000   0.0000   0.0000   0.0000   0.0000
     0.0000   0.0000   0.0000   0.0000   0.0000   0.0000   0.0000   0.0000

          k = 0.0000 0.0000 0.3333 ( 24280 PWs)   bands (ev):

    -8.3190  -7.5531  -6.5272  -6.0425  -5.9367  -5.8240  -5.4894  -5.3024
    -5.1859  -4.9839  -4.5117  -4.1183  -3.8249  -3.7945  -3.6923  -3.4359
    -3.2195  -3.1543  -2.9344  -2.5996  -2.5142  -2.3969  -2.3227  -1.7725
    -0.8308  -0.7010  -0.5933  -0.3471   0.1819   0.2770   0.3470   0.3901
     0.4698   0.5510   0.5688   0.6568   0.7239   0.7471   0.9718   1.4747
     1.9919   2.0091   2.1428   2.2327   2.4081   2.4787   2.4799   2.7404
     2.9512   2.9977   3.1599   3.1669   3.8945   3.9763   4.0473   4.0597
     4.2850   4.3702   4.5122   4.5509   5.0883   5.1106   5.1423   5.1975
     5.1997   5.5989   5.6138   5.7135   5.7319   6.0668   6.1087   6.1748
     6.1867   6.3214   6.4004   6.4510   6.4941   6.6105   6.6233   6.7480
     6.7501   6.8812   6.8978   6.9293   7.1362   7.1579   7.1805   7.2529
     7.4182   7.4680   7.6710   7.7719   7.8284   8.0448   8.1479   8.2700
     8.2934   8.4350   8.6781   8.7032   8.7630   9.0996   9.1836   9.3525
     9.3742   9.6301   9.6516   9.7106   9.7660   9.9119   9.9317   9.9419
     9.9639  10.0027  10.1018  10.1179  10.1584  10.2650  10.2709  10.3584
    10.3677  11.3730  11.7003  11.7229  12.0426  13.7545  14.9696  15.1462
    17.1923  17.2928  17.9461  18.3101  18.3505  18.4829  18.5084  18.6120
    18.8222  18.8338  18.9858  19.0802  19.2065  19.8273  19.8604  20.4796
    20.6628  20.6857  20.7854  20.7855  20.8255  20.8574  20.9060  20.9444

     occupation numbers 
     1.0000   1.0000   1.0000   1.0000   1.0000   1.0000   1.0000   1.0000
     1.0000   1.0000   1.0000   1.0000   1.0000   1.0000   1.0000   1.0000
     1.0000   1.0000   1.0000   1.0000   1.0000   1.0000   1.0000   1.0000
     1.0000   1.0000   1.0000   1.0000   1.0000   1.0000   1.0000   1.0000
     1.0000   1.0000   1.0000   1.0000   1.0000   1.0000   1.0000   1.0000
     1.0000   1.0000   1.0000   1.0000   1.0000   1.0000   1.0000   1.0000
     1.0000   1.0000   1.0000   1.0000   1.0000   1.0000   1.0000   1.0000
     1.0000   1.0000   1.0000   1.0000   1.0000   1.0000   1.0000   1.0000
     1.0000   1.0000   1.0000   1.0000   1.0000   1.0000   1.0000   1.0000
     1.0000   1.0000   1.0000   1.0000   1.0000   1.0000   1.0000   1.0000
     1.0000   1.0000   1.0000   1.0000   1.0000   1.0000   1.0000   1.0000
     1.0000   1.0000   1.0000   1.0000   1.0000   1.0000   1.0000   1.0000
     1.0000   1.0000   1.0000   1.0000   1.0000   1.0000   1.0000   1.0000
     1.0000   1.0000   1.0000   1.0000   1.0000   1.0000   1.0000   1.0000
     1.0000   1.0000   1.0000   1.0000   1.0000   1.0000   1.0000   1.0000
     1.0000   1.0000   1.0000   1.0000   1.0000   1.0000   1.0000   0.0000
     0.0000   0.0000   0.0000   0.0000   0.0000   0.0000   0.0000   0.0000
     0.0000   0.0000   0.0000   0.0000   0.0000   0.0000   0.0000   0.0000
     0.0000   0.0000   0.0000   0.0000   0.0000   0.0000   0.0000   0.0000

          k = 0.0000 0.3333 0.3333 ( 24236 PWs)   bands (ev):

    -8.0980  -7.3632  -7.2383  -6.5644  -5.9491  -5.6789  -5.3193  -5.0249
    -4.9993  -4.8458  -4.4940  -4.2682  -4.2297  -3.9433  -3.5373  -3.5109
    -2.7635  -2.3821  -2.3268  -2.3266  -2.2077  -2.1900  -2.0515  -1.8952
    -1.5049  -1.3141  -1.0990  -0.9250  -0.5462  -0.0153   0.0622   0.1182
     0.1793   0.4752   0.6896   1.1794   1.1940   1.2985   1.3723   1.4029
     1.4532   1.4580   1.9417   2.0658   2.1314   2.4057   2.7289   2.8269
     2.9637   3.5193   3.6534   3.7034   3.7821   3.8115   3.9712   4.0296
     4.1048   4.5526   4.6756   4.8269   5.0191   5.0539   5.1415   5.2996
     5.3574   5.5860   5.6479   5.6868   5.7475   5.9851   6.0263   6.0771
     6.1351   6.2261   6.2649   6.4958   6.5360   6.5978   6.6468   6.8561
     6.9047   6.9388   7.0311   7.0393   7.2326   7.2885   7.4988   7.7092
     7.9282   7.9450   8.0745   8.0895   8.1139   8.2153   8.2585   8.3214
     8.3371   8.3993   8.5371   8.6219   8.7020   8.7079   8.8405   8.8839
     9.0582   9.1915   9.2369   9.3082   9.4606   9.4798   9.5736   9.6275
     9.6966   9.7954   9.9003  10.0418  10.0443  10.1107  10.4427  10.7578
    11.0198  11.2022  11.5465  11.8684  12.2192  13.5704  14.9077  15.2081
    18.0685  18.1973  18.2364  18.3018  18.3519  18.8257  18.8548  18.9771
    19.1794  19.2307  19.4435  19.4713  19.6970  19.8014  19.9752  20.0176
    20.1970  20.4585  20.4799  20.5058  20.5655  20.5896  20.6121  20.6490

     occupation numbers 
     1.0000   1.0000   1.0000   1.0000   1.0000   1.0000   1.0000   1.0000
     1.0000   1.0000   1.0000   1.0000   1.0000   1.0000   1.0000   1.0000
     1.0000   1.0000   1.0000   1.0000   1.0000   1.0000   1.0000   1.0000
     1.0000   1.0000   1.0000   1.0000   1.0000   1.0000   1.0000   1.0000
     1.0000   1.0000   1.0000   1.0000   1.0000   1.0000   1.0000   1.0000
     1.0000   1.0000   1.0000   1.0000   1.0000   1.0000   1.0000   1.0000
     1.0000   1.0000   1.0000   1.0000   1.0000   1.0000   1.0000   1.0000
     1.0000   1.0000   1.0000   1.0000   1.0000   1.0000   1.0000   1.0000
     1.0000   1.0000   1.0000   1.0000   1.0000   1.0000   1.0000   1.0000
     1.0000   1.0000   1.0000   1.0000   1.0000   1.0000   1.0000   1.0000
     1.0000   1.0000   1.0000   1.0000   1.0000   1.0000   1.0000   1.0000
     1.0000   1.0000   1.0000   1.0000   1.0000   1.0000   1.0000   1.0000
     1.0000   1.0000   1.0000   1.0000   1.0000   1.0000   1.0000   1.0000
     1.0000   1.0000   1.0000   1.0000   1.0000   1.0000   1.0000   1.0000
     1.0000   1.0000   1.0000   1.0000   1.0000   1.0000   1.0000   1.0000
     1.0000   1.0000   1.0000   1.0000   1.0000   1.0000   1.0000   0.0000
     0.0000   0.0000   0.0000   0.0000   0.0000   0.0000   0.0000   0.0000
     0.0000   0.0000   0.0000   0.0000   0.0000   0.0000   0.0000   0.0000
     0.0000   0.0000   0.0000   0.0000   0.0000   0.0000   0.0000   0.0000

          k = 0.3333 0.3333 0.3333 ( 24303 PWs)   bands (ev):

    -7.8938  -7.1858  -6.9897  -6.9897  -6.2783  -6.2328  -6.2328  -5.4581
    -4.1893  -4.0416  -4.0416  -3.5193  -3.3927  -3.3927  -3.3292  -3.3102
    -3.3102  -2.9098  -2.6740  -2.6740  -1.9504  -1.9068  -1.9068  -1.5414
    -1.4557  -1.4557  -1.4080  -1.4080  -1.3660  -1.2287  -1.2287   0.0627
     0.8478   0.8478   0.9902   0.9905   0.9905   1.3056   1.8264   1.8264
     1.8590   1.9167   2.0093   2.0093   2.5932   2.5932   2.6003   2.6889
     2.7191   2.7191   3.1463   3.1463   3.5348   4.0685   4.2919   4.2919
     4.8163   4.9359   4.9359   4.9379   5.0839   5.0839   5.1475   5.3116
     5.3116   5.4064   5.5001   5.5001   5.5927   5.5927   5.6466   6.3841
     6.7301   6.7301   6.9351   6.9754   6.9754   7.0005   7.0736   7.0736
     7.1900   7.1900   7.2353   7.2590   7.2590   7.2635   7.3526   7.3557
     7.3557   7.4905   7.7326   7.7326   7.9227   7.9227   7.9549   7.9826
     8.1791   8.1791   8.2810   8.3031   8.3031   8.4189   8.4638   8.4638
     8.6766   8.6766   8.8671   9.0466   9.1079   9.5299   9.5299   9.7896
     9.7896  10.4867  10.4881  10.4881  10.5949  10.9400  10.9400  11.2624
    11.2624  11.2714  11.5175  11.6656  11.6656  13.4728  15.2013  15.2013
    18.1429  18.2451  18.2451  18.4584  18.6483  18.6483  19.2170  19.4002
    19.4002  19.5387  19.5387  19.5775  19.6157  19.6157  19.6537  19.7449
    19.7449  19.8669  19.9220  19.9220  20.0035  20.0036  20.0209  20.1455

     occupation numbers 
     1.0000   1.0000   1.0000   1.0000   1.0000   1.0000   1.0000   1.0000
     1.0000   1.0000   1.0000   1.0000   1.0000   1.0000   1.0000   1.0000
     1.0000   1.0000   1.0000   1.0000   1.0000   1.0000   1.0000   1.0000
     1.0000   1.0000   1.0000   1.0000   1.0000   1.0000   1.0000   1.0000
     1.0000   1.0000   1.0000   1.0000   1.0000   1.0000   1.0000   1.0000
     1.0000   1.0000   1.0000   1.0000   1.0000   1.0000   1.0000   1.0000
     1.0000   1.0000   1.0000   1.0000   1.0000   1.0000   1.0000   1.0000
     1.0000   1.0000   1.0000   1.0000   1.0000   1.0000   1.0000   1.0000
     1.0000   1.0000   1.0000   1.0000   1.0000   1.0000   1.0000   1.0000
     1.0000   1.0000   1.0000   1.0000   1.0000   1.0000   1.0000   1.0000
     1.0000   1.0000   1.0000   1.0000   1.0000   1.0000   1.0000   1.0000
     1.0000   1.0000   1.0000   1.0000   1.0000   1.0000   1.0000   1.0000
     1.0000   1.0000   1.0000   1.0000   1.0000   1.0000   1.0000   1.0000
     1.0000   1.0000   1.0000   1.0000   1.0000   1.0000   1.0000   1.0000
     1.0000   1.0000   1.0000   1.0000   1.0000   1.0000   1.0000   1.0000
     1.0000   1.0000   1.0000   1.0000   1.0000   1.0000   0.0000   0.0000
     0.0000   0.0000   0.0000   0.0000   0.0000   0.0000   0.0000   0.0000
     0.0000   0.0000   0.0000   0.0000   0.0000   0.0000   0.0000   0.0000
     0.0000   0.0000   0.0000   0.0000   0.0000   0.0000   0.0000   0.0000

          k =-0.3333 0.0000 0.3333 ( 24236 PWs)   bands (ev):

    -8.0845  -7.4859  -7.1090  -6.5533  -5.9801  -5.6834  -5.3696  -5.0320
    -4.9376  -4.7803  -4.5192  -4.2899  -4.2289  -4.0539  -3.5971  -3.3349
    -2.7709  -2.4046  -2.3646  -2.3037  -2.1956  -2.1640  -2.1109  -1.6581
    -1.6468  -1.3173  -1.1231  -0.9798  -0.6092   0.0094   0.0782   0.1201
     0.2546   0.4791   0.8714   1.0601   1.2141   1.2315   1.2441   1.3990
     1.4728   1.5772   1.8512   1.9106   2.1319   2.5776   2.6816   2.8584
     2.9442   3.5136   3.6574   3.7060   3.7839   3.8842   4.0249   4.1097
     4.1778   4.3910   4.6314   4.8125   4.9662   5.0248   5.1859   5.2440
     5.4072   5.5613   5.6474   5.6750   5.7890   6.0374   6.0792   6.1261
     6.1687   6.2149   6.2603   6.4407   6.4773   6.6097   6.6393   6.8238
     6.8907   6.9560   7.0040   7.0910   7.2197   7.3949   7.5038   7.6787
     7.8497   7.9041   7.9649   8.0694   8.1734   8.2133   8.2456   8.2795
     8.3681   8.4309   8.5291   8.5897   8.7168   8.7463   8.8843   8.9637
     9.0715   9.1378   9.2280   9.3153   9.4515   9.4905   9.5054   9.6504
     9.7272   9.7391   9.9256  10.0248  10.0677  10.1009  10.4893  10.8760
    10.9779  11.1630  11.4964  11.7592  12.2550  13.8205  14.8151  15.1106
    18.0394  18.2082  18.2528  18.3058  18.3741  18.7874  18.9253  19.1034
    19.1502  19.2775  19.3620  19.4797  19.7031  19.8484  19.8810  20.0275
    20.2356  20.3582  20.4214  20.5083  20.5634  20.5820  20.6344  20.6762

     occupation numbers 
     1.0000   1.0000   1.0000   1.0000   1.0000   1.0000   1.0000   1.0000
     1.0000   1.0000   1.0000   1.0000   1.0000   1.0000   1.0000   1.0000
     1.0000   1.0000   1.0000   1.0000   1.0000   1.0000   1.0000   1.0000
     1.0000   1.0000   1.0000   1.0000   1.0000   1.0000   1.0000   1.0000
     1.0000   1.0000   1.0000   1.0000   1.0000   1.0000   1.0000   1.0000
     1.0000   1.0000   1.0000   1.0000   1.0000   1.0000   1.0000   1.0000
     1.0000   1.0000   1.0000   1.0000   1.0000   1.0000   1.0000   1.0000
     1.0000   1.0000   1.0000   1.0000   1.0000   1.0000   1.0000   1.0000
     1.0000   1.0000   1.0000   1.0000   1.0000   1.0000   1.0000   1.0000
     1.0000   1.0000   1.0000   1.0000   1.0000   1.0000   1.0000   1.0000
     1.0000   1.0000   1.0000   1.0000   1.0000   1.0000   1.0000   1.0000
     1.0000   1.0000   1.0000   1.0000   1.0000   1.0000   1.0000   1.0000
     1.0000   1.0000   1.0000   1.0000   1.0000   1.0000   1.0000   1.0000
     1.0000   1.0000   1.0000   1.0000   1.0000   1.0000   1.0000   1.0000
     1.0000   1.0000   1.0000   1.0000   1.0000   1.0000   1.0000   1.0000
     1.0000   1.0000   1.0000   1.0000   1.0000   1.0000   1.0000   0.5000
     0.0000   0.0000   0.0000   0.0000   0.0000   0.0000   0.0000   0.0000
     0.0000   0.0000   0.0000   0.0000   0.0000   0.0000   0.0000   0.0000
     0.0000   0.0000   0.0000   0.0000   0.0000   0.0000   0.0000   0.0000

          k = 0.3333-0.3333 0.3333 ( 24303 PWs)   bands (ev):

    -7.8673  -7.3339  -6.9899  -6.8288  -6.4653  -6.2321  -5.9894  -5.4901
    -4.4653  -4.0416  -3.9365  -3.7184  -3.4247  -3.3583  -3.3169  -3.2377
    -3.0810  -2.8883  -2.6915  -2.4308  -2.0678  -1.8914  -1.8548  -1.7190
    -1.4858  -1.4668  -1.4425  -1.3646  -1.3617  -1.2579  -1.1926  -0.0544
     0.7586   0.8570   0.9533   0.9978   1.0650   1.4227   1.7510   1.7766
     1.8530   1.9470   2.0339   2.2325   2.5835   2.6128   2.6823   2.7007
     2.7118   2.7762   2.9193   3.1728   3.5083   4.0026   4.2395   4.2974
     4.8330   4.8331   4.8551   5.0071   5.0306   5.0577   5.1883   5.2463
     5.2714   5.4292   5.4352   5.5030   5.6849   5.7754   5.8167   6.4737
     6.7226   6.7694   6.9221   6.9233   6.9677   7.0477   7.0660   7.0874
     7.1583   7.1640   7.2186   7.2567   7.2586   7.3210   7.3368   7.3522
     7.3657   7.4664   7.7261   7.7383   7.8315   7.9176   7.9445   7.9543
     8.1319   8.1510   8.2561   8.2832   8.3454   8.3976   8.4072   8.4730
     8.6984   8.7178   8.9550   8.9940   9.1144   9.5349   9.5756   9.7035
     9.8617  10.4055  10.5075  10.5094  10.5566  10.9275  10.9425  11.2041
    11.2266  11.2766  11.4689  11.7193  11.7390  13.8433  14.8863  15.1975
    18.1003  18.2632  18.3401  18.5351  18.6520  18.7250  19.2008  19.3870
    19.4425  19.5074  19.5325  19.5504  19.6050  19.6286  19.6607  19.7156
    19.7456  19.7934  19.9090  19.9253  19.9786  19.9892  20.0440  20.1508

     occupation numbers 
     1.0000   1.0000   1.0000   1.0000   1.0000   1.0000   1.0000   1.0000
     1.0000   1.0000   1.0000   1.0000   1.0000   1.0000   1.0000   1.0000
     1.0000   1.0000   1.0000   1.0000   1.0000   1.0000   1.0000   1.0000
     1.0000   1.0000   1.0000   1.0000   1.0000   1.0000   1.0000   1.0000
     1.0000   1.0000   1.0000   1.0000   1.0000   1.0000   1.0000   1.0000
     1.0000   1.0000   1.0000   1.0000   1.0000   1.0000   1.0000   1.0000
     1.0000   1.0000   1.0000   1.0000   1.0000   1.0000   1.0000   1.0000
     1.0000   1.0000   1.0000   1.0000   1.0000   1.0000   1.0000   1.0000
     1.0000   1.0000   1.0000   1.0000   1.0000   1.0000   1.0000   1.0000
     1.0000   1.0000   1.0000   1.0000   1.0000   1.0000   1.0000   1.0000
     1.0000   1.0000   1.0000   1.0000   1.0000   1.0000   1.0000   1.0000
     1.0000   1.0000   1.0000   1.0000   1.0000   1.0000   1.0000   1.0000
     1.0000   1.0000   1.0000   1.0000   1.0000   1.0000   1.0000   1.0000
     1.0000   1.0000   1.0000   1.0000   1.0000   1.0000   1.0000   1.0000
     1.0000   1.0000   1.0000   1.0000   1.0000   1.0000   1.0000   1.0000
     1.0000   1.0000   1.0000   1.0000   1.0000   1.0000   1.0000   0.0000
     0.0000   0.0000   0.0000   0.0000   0.0000   0.0000   0.0000   0.0000
     0.0000   0.0000   0.0000   0.0000   0.0000   0.0000   0.0000   0.0000
     0.0000   0.0000   0.0000   0.0000   0.0000   0.0000   0.0000   0.0000

 ------ SPIN DOWN ----------


          k = 0.0000 0.0000 0.0000 ( 24207 PWs)   bands (ev):

    -8.5528  -6.9052  -6.2882  -6.2882  -6.1782  -6.1782  -5.8848  -4.9148
    -4.1457  -4.1457  -4.1134  -4.1134  -4.0328  -4.0312  -4.0312  -3.9477
    -3.8813  -3.8813  -3.3669  -2.9651  -2.6832  -2.6832  -2.1046  -0.3773
    -0.3773  -0.3569  -0.3264  -0.1091   0.1619   0.1619   0.2702   0.2702
     0.3456   0.5870   0.8113   0.8113   0.9548   0.9548   0.9568   1.0144
     1.0146   1.0146   1.3228   1.3228   3.0623   3.9255   3.9255   4.0350
     4.1825   4.1825   4.1825   4.2279   4.2339   4.2339   4.3954   4.3954
     4.4558   4.4558   4.5428   4.6304   4.6304   4.6308   4.6337   4.7380
     4.7380   4.8661   4.9262   4.9262   5.0315   5.1840   5.1840   5.2626
     5.3155   5.3155   5.3499   5.3794   5.3794   6.0032   6.0032   6.0393
     6.6027   6.6027   6.6847   6.9766   6.9932   6.9932   7.5236   8.3086
     8.3086   8.3669   8.4255   8.4255   8.6166   8.6166   8.7466   8.7728
     8.7728   8.7853   8.8352   8.8352   8.8469   9.2257   9.2333   9.2333
     9.6514   9.6514   9.8417   9.8556   9.8750   9.8750   9.8788   9.9244
     9.9244   9.9433   9.9589   9.9589  10.0466  10.0466  10.2465  10.2465
    10.2503  11.0774  12.2998  12.4251  12.4251  13.9947  15.2756  15.2756
    17.2903  17.3276  17.3276  17.4716  17.5276  17.5276  17.7977  17.8835
    17.8835  17.9837  17.9837  18.3445  18.8995  18.8995  18.9344  20.6097
    20.7543  20.7544  20.8013  20.8799  20.8800  20.9667  20.9669  20.9732

     occupation numbers 
     1.0000   1.0000   1.0000   1.0000   1.0000   1.0000   1.0000   1.0000
     1.0000   1.0000   1.0000   1.0000   1.0000   1.0000   1.0000   1.0000
     1.0000   1.0000   1.0000   1.0000   1.0000   1.0000   1.0000   1.0000
     1.0000   1.0000   1.0000   1.0000   1.0000   1.0000   1.0000   1.0000
     1.0000   1.0000   1.0000   1.0000   1.0000   1.0000   1.0000   1.0000
     1.0000   1.0000   1.0000   1.0000   1.0000   1.0000   1.0000   1.0000
     1.0000   1.0000   1.0000   1.0000   1.0000   1.0000   1.0000   1.0000
     1.0000   1.0000   1.0000   1.0000   1.0000   1.0000   1.0000   1.0000
     1.0000   1.0000   1.0000   1.0000   1.0000   1.0000   1.0000   1.0000
     1.0000   1.0000   1.0000   1.0000   1.0000   1.0000   1.0000   1.0000
     1.0000   1.0000   1.0000   1.0000   1.0000   1.0000   1.0000   1.0000
     1.0000   1.0000   1.0000   1.0000   1.0000   1.0000   1.0000   1.0000
     1.0000   1.0000   1.0000   1.0000   1.0000   1.0000   1.0000   1.0000
     1.0000   1.0000   1.0000   1.0000   1.0000   1.0000   1.0000   1.0000
     1.0000   1.0000   1.0000   1.0000   1.0000   1.0000   1.0000   1.0000
     1.0000   1.0000   1.0000   1.0000   1.0000   1.0000   0.0000   0.0000
     0.0000   0.0000   0.0000   0.0000   0.0000   0.0000   0.0000   0.0000
     0.0000   0.0000   0.0000   0.0000   0.0000   0.0000   0.0000   0.0000
     0.0000   0.0000   0.0000   0.0000   0.0000   0.0000   0.0000   0.0000

          k = 0.0000 0.0000 0.3333 ( 24280 PWs)   bands (ev):

    -8.3191  -7.5531  -6.5268  -6.0427  -5.9368  -5.8241  -5.4894  -5.3026
    -5.1860  -4.9840  -4.5118  -4.1182  -3.8250  -3.7946  -3.6924  -3.4359
    -3.2197  -3.1544  -2.9345  -2.5996  -2.5143  -2.3970  -2.3228  -1.7725
    -0.8308  -0.7011  -0.5934  -0.3471   0.1819   0.2769   0.3469   0.3900
     0.4697   0.5509   0.5687   0.6567   0.7238   0.7471   0.9718   1.4746
     1.9918   2.0090   2.1428   2.2327   2.4080   2.4786   2.4798   2.7403
     2.9512   2.9977   3.1599   3.1669   3.8944   3.9762   4.0472   4.0596
     4.2850   4.3702   4.5121   4.5508   5.0883   5.1106   5.1423   5.1974
     5.1996   5.5989   5.6138   5.7135   5.7319   6.0668   6.1087   6.1747
     6.1866   6.3214   6.4004   6.4510   6.4941   6.6104   6.6233   6.7480
     6.7501   6.8812   6.8978   6.9293   7.1362   7.1579   7.1805   7.2529
     7.4182   7.4680   7.6710   7.7719   7.8284   8.0447   8.1479   8.2699
     8.2934   8.4349   8.6781   8.7032   8.7630   9.0996   9.1836   9.3525
     9.3742   9.6301   9.6516   9.7106   9.7660   9.9119   9.9317   9.9419
     9.9639  10.0027  10.1019  10.1179  10.1585  10.2650  10.2709  10.3584
    10.3677  11.3735  11.7004  11.7229  12.0427  13.7552  14.9695  15.1461
    17.1922  17.2928  17.9462  18.3101  18.3506  18.4829  18.5084  18.6120
    18.8223  18.8338  18.9857  19.0801  19.2065  19.8274  19.8605  20.4798
    20.6628  20.6857  20.7854  20.7856  20.8256  20.8574  20.9059  20.9443

     occupation numbers 
     1.0000   1.0000   1.0000   1.0000   1.0000   1.0000   1.0000   1.0000
     1.0000   1.0000   1.0000   1.0000   1.0000   1.0000   1.0000   1.0000
     1.0000   1.0000   1.0000   1.0000   1.0000   1.0000   1.0000   1.0000
     1.0000   1.0000   1.0000   1.0000   1.0000   1.0000   1.0000   1.0000
     1.0000   1.0000   1.0000   1.0000   1.0000   1.0000   1.0000   1.0000
     1.0000   1.0000   1.0000   1.0000   1.0000   1.0000   1.0000   1.0000
     1.0000   1.0000   1.0000   1.0000   1.0000   1.0000   1.0000   1.0000
     1.0000   1.0000   1.0000   1.0000   1.0000   1.0000   1.0000   1.0000
     1.0000   1.0000   1.0000   1.0000   1.0000   1.0000   1.0000   1.0000
     1.0000   1.0000   1.0000   1.0000   1.0000   1.0000   1.0000   1.0000
     1.0000   1.0000   1.0000   1.0000   1.0000   1.0000   1.0000   1.0000
     1.0000   1.0000   1.0000   1.0000   1.0000   1.0000   1.0000   1.0000
     1.0000   1.0000   1.0000   1.0000   1.0000   1.0000   1.0000   1.0000
     1.0000   1.0000   1.0000   1.0000   1.0000   1.0000   1.0000   1.0000
     1.0000   1.0000   1.0000   1.0000   1.0000   1.0000   1.0000   1.0000
     1.0000   1.0000   1.0000   1.0000   1.0000   1.0000   1.0000   0.0000
     0.0000   0.0000   0.0000   0.0000   0.0000   0.0000   0.0000   0.0000
     0.0000   0.0000   0.0000   0.0000   0.0000   0.0000   0.0000   0.0000
     0.0000   0.0000   0.0000   0.0000   0.0000   0.0000   0.0000   0.0000

          k = 0.0000 0.3333 0.3333 ( 24236 PWs)   bands (ev):

    -8.0980  -7.3631  -7.2385  -6.5643  -5.9490  -5.6791  -5.3191  -5.0251
    -4.9995  -4.8460  -4.4940  -4.2684  -4.2299  -3.9434  -3.5372  -3.5110
    -2.7633  -2.3822  -2.3270  -2.3268  -2.2078  -2.1901  -2.0516  -1.8952
    -1.5050  -1.3142  -1.0990  -0.9251  -0.5462  -0.0153   0.0621   0.1181
     0.1792   0.4751   0.6896   1.1793   1.1939   1.2984   1.3722   1.4027
     1.4531   1.4579   1.9417   2.0657   2.1313   2.4057   2.7289   2.8269
     2.9637   3.5193   3.6533   3.7033   3.7820   3.8115   3.9711   4.0296
     4.1048   4.5525   4.6755   4.8268   5.0190   5.0539   5.1414   5.2996
     5.3574   5.5859   5.6479   5.6867   5.7474   5.9852   6.0263   6.0771
     6.1351   6.2261   6.2648   6.4957   6.5360   6.5978   6.6468   6.8561
     6.9047   6.9388   7.0310   7.0393   7.2325   7.2885   7.4988   7.7092
     7.9282   7.9450   8.0745   8.0894   8.1139   8.2153   8.2586   8.3214
     8.3371   8.3993   8.5371   8.6219   8.7020   8.7079   8.8406   8.8840
     9.0582   9.1916   9.2369   9.3082   9.4606   9.4798   9.5736   9.6275
     9.6967   9.7954   9.9003  10.0418  10.0443  10.1107  10.4427  10.7580
    11.0198  11.2023  11.5465  11.8688  12.2192  13.5711  14.9076  15.2080
    18.0685  18.1972  18.2364  18.3018  18.3519  18.8257  18.8549  18.9772
    19.1794  19.2308  19.4435  19.4712  19.6970  19.8013  19.9752  20.0178
    20.1971  20.4586  20.4799  20.5059  20.5656  20.5897  20.6121  20.6489

     occupation numbers 
     1.0000   1.0000   1.0000   1.0000   1.0000   1.0000   1.0000   1.0000
     1.0000   1.0000   1.0000   1.0000   1.0000   1.0000   1.0000   1.0000
     1.0000   1.0000   1.0000   1.0000   1.0000   1.0000   1.0000   1.0000
     1.0000   1.0000   1.0000   1.0000   1.0000   1.0000   1.0000   1.0000
     1.0000   1.0000   1.0000   1.0000   1.0000   1.0000   1.0000   1.0000
     1.0000   1.0000   1.0000   1.0000   1.0000   1.0000   1.0000   1.0000
     1.0000   1.0000   1.0000   1.0000   1.0000   1.0000   1.0000   1.0000
     1.0000   1.0000   1.0000   1.0000   1.0000   1.0000   1.0000   1.0000
     1.0000   1.0000   1.0000   1.0000   1.0000   1.0000   1.0000   1.0000
     1.0000   1.0000   1.0000   1.0000   1.0000   1.0000   1.0000   1.0000
     1.0000   1.0000   1.0000   1.0000   1.0000   1.0000   1.0000   1.0000
     1.0000   1.0000   1.0000   1.0000   1.0000   1.0000   1.0000   1.0000
     1.0000   1.0000   1.0000   1.0000   1.0000   1.0000   1.0000   1.0000
     1.0000   1.0000   1.0000   1.0000   1.0000   1.0000   1.0000   1.0000
     1.0000   1.0000   1.0000   1.0000   1.0000   1.0000   1.0000   1.0000
     1.0000   1.0000   1.0000   1.0000   1.0000   1.0000   1.0000   0.0000
     0.0000   0.0000   0.0000   0.0000   0.0000   0.0000   0.0000   0.0000
     0.0000   0.0000   0.0000   0.0000   0.0000   0.0000   0.0000   0.0000
     0.0000   0.0000   0.0000   0.0000   0.0000   0.0000   0.0000   0.0000

          k = 0.3333 0.3333 0.3333 ( 24303 PWs)   bands (ev):

    -7.8937  -7.1857  -6.9898  -6.9898  -6.2782  -6.2329  -6.2329  -5.4581
    -4.1891  -4.0417  -4.0417  -3.5191  -3.3929  -3.3929  -3.3293  -3.3104
    -3.3104  -2.9098  -2.6741  -2.6741  -1.9505  -1.9070  -1.9070  -1.5415
    -1.4558  -1.4558  -1.4081  -1.4081  -1.3661  -1.2288  -1.2288   0.0627
     0.8477   0.8477   0.9902   0.9904   0.9904   1.3055   1.8263   1.8263
     1.8589   1.9167   2.0092   2.0092   2.5932   2.5932   2.6002   2.6889
     2.7190   2.7190   3.1462   3.1462   3.5347   4.0684   4.2919   4.2919
     4.8163   4.9359   4.9359   4.9378   5.0839   5.0839   5.1475   5.3116
     5.3116   5.4063   5.5000   5.5000   5.5928   5.5928   5.6465   6.3841
     6.7302   6.7302   6.9351   6.9754   6.9754   7.0005   7.0735   7.0735
     7.1900   7.1900   7.2353   7.2589   7.2589   7.2635   7.3526   7.3556
     7.3556   7.4905   7.7326   7.7326   7.9227   7.9227   7.9549   7.9825
     8.1791   8.1791   8.2810   8.3031   8.3031   8.4189   8.4638   8.4638
     8.6766   8.6766   8.8673   9.0466   9.1079   9.5299   9.5299   9.7896
     9.7896  10.4867  10.4881  10.4881  10.5950  10.9401  10.9401  11.2624
    11.2624  11.2715  11.5178  11.6657  11.6657  13.4736  15.2013  15.2013
    18.1431  18.2450  18.2450  18.4584  18.6483  18.6483  19.2172  19.4002
    19.4002  19.5387  19.5387  19.5775  19.6157  19.6157  19.6536  19.7449
    19.7449  19.8669  19.9221  19.9221  20.0035  20.0035  20.0210  20.1456

     occupation numbers 
     1.0000   1.0000   1.0000   1.0000   1.0000   1.0000   1.0000   1.0000
     1.0000   1.0000   1.0000   1.0000   1.0000   1.0000   1.0000   1.0000
     1.0000   1.0000   1.0000   1.0000   1.0000   1.0000   1.0000   1.0000
     1.0000   1.0000   1.0000   1.0000   1.0000   1.0000   1.0000   1.0000
     1.0000   1.0000   1.0000   1.0000   1.0000   1.0000   1.0000   1.0000
     1.0000   1.0000   1.0000   1.0000   1.0000   1.0000   1.0000   1.0000
     1.0000   1.0000   1.0000   1.0000   1.0000   1.0000   1.0000   1.0000
     1.0000   1.0000   1.0000   1.0000   1.0000   1.0000   1.0000   1.0000
     1.0000   1.0000   1.0000   1.0000   1.0000   1.0000   1.0000   1.0000
     1.0000   1.0000   1.0000   1.0000   1.0000   1.0000   1.0000   1.0000
     1.0000   1.0000   1.0000   1.0000   1.0000   1.0000   1.0000   1.0000
     1.0000   1.0000   1.0000   1.0000   1.0000   1.0000   1.0000   1.0000
     1.0000   1.0000   1.0000   1.0000   1.0000   1.0000   1.0000   1.0000
     1.0000   1.0000   1.0000   1.0000   1.0000   1.0000   1.0000   1.0000
     1.0000   1.0000   1.0000   1.0000   1.0000   1.0000   1.0000   1.0000
     1.0000   1.0000   1.0000   1.0000   1.0000   1.0000   0.0000   0.0000
     0.0000   0.0000   0.0000   0.0000   0.0000   0.0000   0.0000   0.0000
     0.0000   0.0000   0.0000   0.0000   0.0000   0.0000   0.0000   0.0000
     0.0000   0.0000   0.0000   0.0000   0.0000   0.0000   0.0000   0.0000

          k =-0.3333 0.0000 0.3333 ( 24236 PWs)   bands (ev):

    -8.0845  -7.4858  -7.1092  -6.5532  -5.9800  -5.6835  -5.3696  -5.0321
    -4.9377  -4.7804  -4.5192  -4.2901  -4.2290  -4.0540  -3.5971  -3.3350
    -2.7707  -2.4048  -2.3647  -2.3037  -2.1957  -2.1641  -2.1110  -1.6582
    -1.6469  -1.3173  -1.1231  -0.9799  -0.6092   0.0093   0.0781   0.1200
     0.2545   0.4790   0.8713   1.0601   1.2140   1.2313   1.2441   1.3989
     1.4727   1.5771   1.8512   1.9105   2.1319   2.5776   2.6816   2.8584
     2.9441   3.5136   3.6573   3.7059   3.7838   3.8841   4.0248   4.1096
     4.1777   4.3910   4.6314   4.8125   4.9661   5.0248   5.1859   5.2439
     5.4072   5.5613   5.6474   5.6750   5.7889   6.0374   6.0791   6.1260
     6.1686   6.2148   6.2603   6.4407   6.4773   6.6096   6.6392   6.8238
     6.8906   6.9560   7.0039   7.0910   7.2197   7.3949   7.5038   7.6787
     7.8497   7.9041   7.9649   8.0693   8.1734   8.2133   8.2456   8.2794
     8.3681   8.4310   8.5291   8.5897   8.7168   8.7462   8.8844   8.9637
     9.0715   9.1378   9.2280   9.3153   9.4515   9.4905   9.5054   9.6504
     9.7272   9.7391   9.9256  10.0248  10.0677  10.1009  10.4893  10.8760
    10.9781  11.1631  11.4965  11.7596  12.2550  13.8211  14.8151  15.1105
    18.0394  18.2082  18.2527  18.3058  18.3740  18.7874  18.9254  19.1034
    19.1503  19.2775  19.3621  19.4797  19.7031  19.8484  19.8811  20.0276
    20.2358  20.3582  20.4215  20.5084  20.5635  20.5820  20.6345  20.6762

     occupation numbers 
     1.0000   1.0000   1.0000   1.0000   1.0000   1.0000   1.0000   1.0000
     1.0000   1.0000   1.0000   1.0000   1.0000   1.0000   1.0000   1.0000
     1.0000   1.0000   1.0000   1.0000   1.0000   1.0000   1.0000   1.0000
     1.0000   1.0000   1.0000   1.0000   1.0000   1.0000   1.0000   1.0000
     1.0000   1.0000   1.0000   1.0000   1.0000   1.0000   1.0000   1.0000
     1.0000   1.0000   1.0000   1.0000   1.0000   1.0000   1.0000   1.0000
     1.0000   1.0000   1.0000   1.0000   1.0000   1.0000   1.0000   1.0000
     1.0000   1.0000   1.0000   1.0000   1.0000   1.0000   1.0000   1.0000
     1.0000   1.0000   1.0000   1.0000   1.0000   1.0000   1.0000   1.0000
     1.0000   1.0000   1.0000   1.0000   1.0000   1.0000   1.0000   1.0000
     1.0000   1.0000   1.0000   1.0000   1.0000   1.0000   1.0000   1.0000
     1.0000   1.0000   1.0000   1.0000   1.0000   1.0000   1.0000   1.0000
     1.0000   1.0000   1.0000   1.0000   1.0000   1.0000   1.0000   1.0000
     1.0000   1.0000   1.0000   1.0000   1.0000   1.0000   1.0000   1.0000
     1.0000   1.0000   1.0000   1.0000   1.0000   1.0000   1.0000   1.0000
     1.0000   1.0000   1.0000   1.0000   1.0000   1.0000   1.0000   0.5000
     0.0000   0.0000   0.0000   0.0000   0.0000   0.0000   0.0000   0.0000
     0.0000   0.0000   0.0000   0.0000   0.0000   0.0000   0.0000   0.0000
     0.0000   0.0000   0.0000   0.0000   0.0000   0.0000   0.0000   0.0000

          k = 0.3333-0.3333 0.3333 ( 24303 PWs)   bands (ev):

    -7.8672  -7.3338  -6.9901  -6.8290  -6.4653  -6.2322  -5.9895  -5.4900
    -4.4650  -4.0417  -3.9366  -3.7184  -3.4248  -3.3585  -3.3170  -3.2378
    -3.0812  -2.8883  -2.6917  -2.4309  -2.0678  -1.8915  -1.8550  -1.7190
    -1.4859  -1.4670  -1.4426  -1.3646  -1.3617  -1.2580  -1.1926  -0.0544
     0.7585   0.8568   0.9532   0.9977   1.0649   1.4226   1.7509   1.7766
     1.8529   1.9469   2.0338   2.2324   2.5835   2.6127   2.6822   2.7006
     2.7117   2.7761   2.9192   3.1728   3.5083   4.0026   4.2394   4.2974
     4.8330   4.8331   4.8551   5.0070   5.0305   5.0576   5.1883   5.2463
     5.2714   5.4291   5.4352   5.5029   5.6848   5.7754   5.8167   6.4736
     6.7227   6.7695   6.9221   6.9232   6.9676   7.0476   7.0660   7.0873
     7.1583   7.1639   7.2186   7.2566   7.2586   7.3209   7.3368   7.3521
     7.3657   7.4663   7.7261   7.7383   7.8316   7.9175   7.9445   7.9543
     8.1319   8.1510   8.2561   8.2832   8.3454   8.3977   8.4072   8.4730
     8.6984   8.7177   8.9550   8.9940   9.1145   9.5349   9.5756   9.7037
     9.8617  10.4055  10.5075  10.5094  10.5567  10.9276  10.9426  11.2042
    11.2266  11.2767  11.4692  11.7193  11.7389  13.8441  14.8862  15.1975
    18.1003  18.2631  18.3401  18.5351  18.6520  18.7250  19.2009  19.3872
    19.4425  19.5074  19.5324  19.5504  19.6050  19.6285  19.6607  19.7156
    19.7456  19.7934  19.9090  19.9253  19.9786  19.9892  20.0439  20.1508

     occupation numbers 
     1.0000   1.0000   1.0000   1.0000   1.0000   1.0000   1.0000   1.0000
     1.0000   1.0000   1.0000   1.0000   1.0000   1.0000   1.0000   1.0000
     1.0000   1.0000   1.0000   1.0000   1.0000   1.0000   1.0000   1.0000
     1.0000   1.0000   1.0000   1.0000   1.0000   1.0000   1.0000   1.0000
     1.0000   1.0000   1.0000   1.0000   1.0000   1.0000   1.0000   1.0000
     1.0000   1.0000   1.0000   1.0000   1.0000   1.0000   1.0000   1.0000
     1.0000   1.0000   1.0000   1.0000   1.0000   1.0000   1.0000   1.0000
     1.0000   1.0000   1.0000   1.0000   1.0000   1.0000   1.0000   1.0000
     1.0000   1.0000   1.0000   1.0000   1.0000   1.0000   1.0000   1.0000
     1.0000   1.0000   1.0000   1.0000   1.0000   1.0000   1.0000   1.0000
     1.0000   1.0000   1.0000   1.0000   1.0000   1.0000   1.0000   1.0000
     1.0000   1.0000   1.0000   1.0000   1.0000   1.0000   1.0000   1.0000
     1.0000   1.0000   1.0000   1.0000   1.0000   1.0000   1.0000   1.0000
     1.0000   1.0000   1.0000   1.0000   1.0000   1.0000   1.0000   1.0000
     1.0000   1.0000   1.0000   1.0000   1.0000   1.0000   1.0000   1.0000
     1.0000   1.0000   1.0000   1.0000   1.0000   1.0000   1.0000   0.0000
     0.0000   0.0000   0.0000   0.0000   0.0000   0.0000   0.0000   0.0000
     0.0000   0.0000   0.0000   0.0000   0.0000   0.0000   0.0000   0.0000
     0.0000   0.0000   0.0000   0.0000   0.0000   0.0000   0.0000   0.0000

     the spin up/dw Fermi energies are    15.1125   15.1124 ev

!    total energy              =    -724.77439415 Ry
     Harris-Foulkes estimate   =    -724.77439375 Ry
     estimated scf accuracy    <       0.00000048 Ry

     The total energy is the sum of the following terms:

     one-electron contribution =     232.34881488 Ry
     hartree contribution      =      69.37573340 Ry
     xc contribution           =    -226.36360959 Ry
     ewald contribution        =    -800.13525989 Ry
     smearing contrib. (-TS)   =      -0.00007295 Ry

     total magnetization       =     0.00 Bohr mag/cell
     absolute magnetization    =     0.00 Bohr mag/cell

     convergence has been achieved in   9 iterations

     Writing output data file di.save
 
     init_run     :      1.42s CPU      1.83s WALL (       1 calls)
     electrons    :     24.76s CPU     25.19s WALL (       1 calls)

     Called by init_run:
     wfcinit      :      0.73s CPU      0.80s WALL (       1 calls)
     wfcinit:atom :      0.01s CPU      0.01s WALL (       2 calls)
     wfcinit:wfcr :      0.68s CPU      0.74s WALL (       2 calls)
     potinit      :      0.10s CPU      0.11s WALL (       1 calls)

     Called by electrons:
     c_bands      :     23.16s CPU     23.55s WALL (       9 calls)
     sum_band     :      1.09s CPU      1.11s WALL (       9 calls)
     v_of_rho     :      0.37s CPU      0.38s WALL (      10 calls)
     v_h          :      0.01s CPU      0.01s WALL (      10 calls)
     v_xc         :      0.36s CPU      0.37s WALL (      10 calls)
     mix_rho      :      0.06s CPU      0.06s WALL (       9 calls)

     Called by c_bands:
     init_us_2    :      0.18s CPU      0.18s WALL (      38 calls)
     cegterg      :     20.64s CPU     21.00s WALL (      18 calls)

     Called by sum_band:

     Called by *egterg:
     h_psi        :      8.32s CPU      8.44s WALL (     124 calls)
     g_psi        :      0.05s CPU      0.05s WALL (     104 calls)
     cdiaghg      :      8.74s CPU      8.79s WALL (     122 calls)
     cegterg:over :      1.61s CPU      1.61s WALL (     104 calls)
     cegterg:upda :      1.22s CPU      1.23s WALL (     104 calls)
     cegterg:last :      0.45s CPU      0.46s WALL (      18 calls)

     Called by h_psi:
     h_psi:pot    :      8.22s CPU      8.34s WALL (     124 calls)
     h_psi:calbec :      1.78s CPU      1.80s WALL (     124 calls)
     vloc_psi     :      4.57s CPU      4.66s WALL (     124 calls)
     add_vuspsi   :      1.86s CPU      1.88s WALL (     124 calls)

     General routines
     calbec       :      1.78s CPU      1.80s WALL (     124 calls)
     fft          :      0.12s CPU      0.34s WALL (     207 calls)
     fftw         :      4.89s CPU      4.89s WALL (   18360 calls)
 
     Parallel routines
     fft_scatter  :      1.48s CPU      1.45s WALL (   18567 calls)
 
     PWSCF        :    29.09s CPU        32.52s WALL

 
   This run was terminated on:  10:26:37  12May2020            

=------------------------------------------------------------------------------=
   JOB DONE.
=------------------------------------------------------------------------------=
