
     Program PWSCF v.6.1 (svn rev. 13369) starts on 28Apr2020 at 21: 3:20 

     This program is part of the open-source Quantum ESPRESSO suite
     for quantum simulation of materials; please cite
         "P. Giannozzi et al., J. Phys.:Condens. Matter 21 395502 (2009);
          URL http://www.quantum-espresso.org", 
     in publications or presentations arising from this work. More details at
     http://www.quantum-espresso.org/quote

     Parallel version (MPI), running on    64 processors
     K-points division:     npool     =       2
     R & G space division:  proc/nbgrp/npool/nimage =      32
     Reading input from relax.in

     Current dimensions of program PWSCF are:
     Max number of different atomic species (ntypx) = 10
     Max number of k-points (npk) =  40000
     Max angular momentum in pseudopotentials (lmaxx) =  3

     Subspace diagonalization in iterative solution of the eigenvalue problem:
     one sub-group per band group will be used
     scalapack distributed-memory algorithm (size of sub-group:  5*  5 procs)

 
     Parallelization info
     --------------------
     sticks:   dense  smooth     PW     G-vecs:    dense   smooth      PW
     Min         383     383     95                45549    45549    5695
     Max         384     384     96                45554    45554    5702
     Sum       12259   12259   3067              1457633  1457633  182351
 


     bravais-lattice index     =            0
     lattice parameter (alat)  =      28.4285  a.u.
     unit-cell volume          =   26452.5957 (a.u.)^3
     number of atoms/cell      =           71
     number of atomic types    =            2
     number of electrons       =       285.00
     number of Kohn-Sham states=          151
     kinetic-energy cutoff     =      55.0000  Ry
     charge density cutoff     =     220.0000  Ry
     convergence threshold     =      1.0E-06
     mixing beta               =       0.7000
     number of iterations used =            8  plain     mixing
     Exchange-correlation      = PBE ( 1  4  3  4 0 0)
     nstep                     =           50


     celldm(1)=  28.428530  celldm(2)=   0.000000  celldm(3)=   0.000000
     celldm(4)=   0.000000  celldm(5)=   0.000000  celldm(6)=   0.000000

     crystal axes: (cart. coord. in units of alat)
               a(1) = (   1.000000   0.000000   0.000000 )  
               a(2) = (  -0.500000   0.866025   0.000000 )  
               a(3) = (   0.000000   0.000000   1.329458 )  

     reciprocal axes: (cart. coord. in units 2 pi/alat)
               b(1) = (  1.000000  0.577350  0.000000 )  
               b(2) = (  0.000000  1.154701  0.000000 )  
               b(3) = (  0.000000  0.000000  0.752187 )  


     PseudoPot. # 1 for B  read from file:
     /home/tjsmart/Pseudo/B_ONCV_PBE-1.0.upf
     MD5 check sum: a9fd2462c33df863cd3ce8a66ea40380
     Pseudo is Norm-conserving, Zval =  3.0
     Generated using ONCVPSP code by D. R. Hamann
     Using radial grid of 1534 points,  4 beta functions with: 
                l(1) =   0
                l(2) =   0
                l(3) =   1
                l(4) =   1

     PseudoPot. # 2 for N  read from file:
     /home/tjsmart/Pseudo/N_ONCV_PBE-1.0.upf
     MD5 check sum: 09890da6b2972017450f7114a6086fad
     Pseudo is Norm-conserving, Zval =  5.0
     Generated using ONCVPSP code by D. R. Hamann
     Using radial grid of 1058 points,  4 beta functions with: 
                l(1) =   0
                l(2) =   0
                l(3) =   1
                l(4) =   1

     atomic species   valence    mass     pseudopotential
        B              3.00    10.81100     B ( 1.00)
        N              5.00    14.00670     N ( 1.00)

     Starting magnetic structure 
     atomic species   magnetization
        B            0.500
        N            0.500

      2 Sym. Ops. (no inversion) found



   Cartesian axes

     site n.     atom                  positions (alat units)
         1           B   tau(   1) = (   0.0847220   0.0481792   0.0000000  )
         2           B   tau(   2) = (   0.0016552   0.1915065   0.0000000  )
         3           B   tau(   3) = (  -0.0840700   0.3354423   0.0000000  )
         4           B   tau(   4) = (  -0.1697016   0.4797411   0.0000000  )
         5           B   tau(   5) = (  -0.2531040   0.6239657   0.0000000  )
         6           B   tau(   6) = (  -0.3347998   0.7684562   0.0000000  )
         7           B   tau(   7) = (   0.2505326   0.0503107   0.0000000  )
         8           B   tau(   8) = (   0.1708608   0.1982850   0.0000000  )
         9           B   tau(   9) = (   0.0817536   0.3373414   0.0000000  )
        10           B   tau(  10) = (  -0.0041807   0.4808770   0.0000000  )
        11           B   tau(  11) = (  -0.0868009   0.6252373   0.0000000  )
        12           B   tau(  12) = (  -0.1688315   0.7699815   0.0000000  )
        13           B   tau(  13) = (   0.4160703   0.0489591   0.0000000  )
        14           B   tau(  14) = (   0.3357626   0.1980947   0.0000000  )
        15           B   tau(  15) = (   0.2530533   0.3542664   0.0000000  )
        16           B   tau(  16) = (   0.1598302   0.4828258   0.0000000  )
        17           B   tau(  17) = (   0.0795559   0.6259404   0.0000000  )
        18           B   tau(  18) = (  -0.0022718   0.7698024   0.0000000  )
        19           B   tau(  19) = (   0.5841260   0.0456739   0.0000000  )
        20           B   tau(  20) = (   0.5048227   0.1892082   0.0000000  )
        21           N   tau(  21) = (   0.4225323   0.3312267   0.0000000  )
        22           B   tau(  22) = (   0.3177878   0.4664114   0.0000000  )
        23           B   tau(  23) = (   0.2467774   0.6232065   0.0000000  )
        24           B   tau(  24) = (   0.1655733   0.7678573   0.0000000  )
        25           B   tau(  25) = (   0.7514744   0.0445204   0.0000000  )
        26           B   tau(  26) = (   0.6701564   0.1882279   0.0000000  )
        27           B   tau(  27) = (   0.5866519   0.3309170   0.0000000  )
        28           B   tau(  28) = (   0.4944168   0.4729067   0.0000000  )
        29           B   tau(  29) = (   0.4117915   0.6155950   0.0000000  )
        30           B   tau(  30) = (   0.3330495   0.7654852   0.0000000  )
        31           B   tau(  31) = (   0.9178242   0.0452228   0.0000000  )
        32           B   tau(  32) = (   0.8353019   0.1897246   0.0000000  )
        33           B   tau(  33) = (   0.7505973   0.3339871   0.0000000  )
        34           B   tau(  34) = (   0.6637696   0.4779147   0.0000000  )
        35           B   tau(  35) = (   0.5798156   0.6205986   0.0000000  )
        36           B   tau(  36) = (   0.4987047   0.7652451   0.0000000  )
        37           N   tau(  37) = (   0.0009787   0.0949223   0.0000000  )
        38           N   tau(  38) = (  -0.0821736   0.2389754   0.0000000  )
        39           N   tau(  39) = (  -0.1675411   0.3832907   0.0000000  )
        40           N   tau(  40) = (  -0.2533779   0.5273969   0.0000000  )
        41           N   tau(  41) = (  -0.3367007   0.6711574   0.0000000  )
        42           N   tau(  42) = (  -0.4177577   0.8163130   0.0000000  )
        43           N   tau(  43) = (   0.1683262   0.0996797   0.0000000  )
        44           N   tau(  44) = (   0.0846472   0.2413865   0.0000000  )
        45           N   tau(  45) = (  -0.0021005   0.3846488   0.0000000  )
        46           N   tau(  46) = (  -0.0872100   0.5288166   0.0000000  )
        47           N   tau(  47) = (  -0.1699656   0.6733043   0.0000000  )
        48           N   tau(  48) = (  -0.2514991   0.8187899   0.0000000  )
        49           N   tau(  49) = (   0.3340625   0.1000856   0.0000000  )
        50           N   tau(  50) = (   0.2553988   0.2521242   0.0000000  )
        51           N   tau(  51) = (   0.1628642   0.3873516   0.0000000  )
        52           N   tau(  52) = (   0.0777857   0.5302557   0.0000000  )
        53           N   tau(  53) = (  -0.0035340   0.6738070   0.0000000  )
        54           N   tau(  54) = (  -0.0853517   0.8185159   0.0000000  )
        55           N   tau(  55) = (   0.5011071   0.0941526   0.0000000  )
        56           N   tau(  56) = (   0.4240925   0.2402616   0.0000000  )
        57           N   tau(  57) = (   0.2440068   0.5279339   0.0000000  )
        58           N   tau(  58) = (   0.1639411   0.6722877   0.0000000  )
        59           N   tau(  59) = (   0.0823449   0.8161356   0.0000000  )
        60           N   tau(  60) = (   0.6683816   0.0925339   0.0000000  )
        61           N   tau(  61) = (   0.5876302   0.2358581   0.0000000  )
        62           N   tau(  62) = (   0.5020858   0.3753455   0.0000000  )
        63           N   tau(  63) = (   0.4074201   0.5154810   0.0000000  )
        64           N   tau(  64) = (   0.3313212   0.6686530   0.0000000  )
        65           N   tau(  65) = (   0.2500926   0.8144394   0.0000000  )
        66           N   tau(  66) = (   0.8346960   0.0932962   0.0000000  )
        67           N   tau(  67) = (   0.7521558   0.2376108   0.0000000  )
        68           N   tau(  68) = (   0.6671246   0.3816584   0.0000000  )
        69           N   tau(  69) = (   0.5784688   0.5233399   0.0000000  )
        70           N   tau(  70) = (   0.4959355   0.6671171   0.0000000  )
        71           N   tau(  71) = (   0.4163376   0.8143728   0.0000000  )

     number of k points=     1
                       cart. coord. in units 2pi/alat
        k(    1) = (   0.0000000   0.0000000   0.0000000), wk =   1.0000000

     Dense  grid:  1457633 G-vectors     FFT dimensions: ( 135, 135, 180)

     Occupations read from input 

      Spin-up

        1.0000   1.0000   1.0000   1.0000   1.0000   1.0000   1.0000   1.0000
        1.0000   1.0000   1.0000   1.0000   1.0000   1.0000   1.0000   1.0000
        1.0000   1.0000   1.0000   1.0000   1.0000   1.0000   1.0000   1.0000
        1.0000   1.0000   1.0000   1.0000   1.0000   1.0000   1.0000   1.0000
        1.0000   1.0000   1.0000   1.0000   1.0000   1.0000   1.0000   1.0000
        1.0000   1.0000   1.0000   1.0000   1.0000   1.0000   1.0000   1.0000
        1.0000   1.0000   1.0000   1.0000   1.0000   1.0000   1.0000   1.0000
        1.0000   1.0000   1.0000   1.0000   1.0000   1.0000   1.0000   1.0000
        1.0000   1.0000   1.0000   1.0000   1.0000   1.0000   1.0000   1.0000
        1.0000   1.0000   1.0000   1.0000   1.0000   1.0000   1.0000   1.0000
        1.0000   1.0000   1.0000   1.0000   1.0000   1.0000   1.0000   1.0000
        1.0000   1.0000   1.0000   1.0000   1.0000   1.0000   1.0000   1.0000
        1.0000   1.0000   1.0000   1.0000   1.0000   1.0000   1.0000   1.0000
        1.0000   1.0000   1.0000   1.0000   1.0000   1.0000   1.0000   1.0000
        1.0000   1.0000   1.0000   1.0000   1.0000   1.0000   1.0000   1.0000
        1.0000   1.0000   1.0000   1.0000   1.0000   1.0000   1.0000   1.0000
        1.0000   1.0000   1.0000   1.0000   1.0000   1.0000   1.0000   1.0000
        1.0000   1.0000   1.0000   1.0000   1.0000   1.0000   0.0000   1.0000
        0.0000   0.0000   0.0000   0.0000   0.0000   0.0000   0.0000

      Spin-down

        1.0000   1.0000   1.0000   1.0000   1.0000   1.0000   1.0000   1.0000
        1.0000   1.0000   1.0000   1.0000   1.0000   1.0000   1.0000   1.0000
        1.0000   1.0000   1.0000   1.0000   1.0000   1.0000   1.0000   1.0000
        1.0000   1.0000   1.0000   1.0000   1.0000   1.0000   1.0000   1.0000
        1.0000   1.0000   1.0000   1.0000   1.0000   1.0000   1.0000   1.0000
        1.0000   1.0000   1.0000   1.0000   1.0000   1.0000   1.0000   1.0000
        1.0000   1.0000   1.0000   1.0000   1.0000   1.0000   1.0000   1.0000
        1.0000   1.0000   1.0000   1.0000   1.0000   1.0000   1.0000   1.0000
        1.0000   1.0000   1.0000   1.0000   1.0000   1.0000   1.0000   1.0000
        1.0000   1.0000   1.0000   1.0000   1.0000   1.0000   1.0000   1.0000
        1.0000   1.0000   1.0000   1.0000   1.0000   1.0000   1.0000   1.0000
        1.0000   1.0000   1.0000   1.0000   1.0000   1.0000   1.0000   1.0000
        1.0000   1.0000   1.0000   1.0000   1.0000   1.0000   1.0000   1.0000
        1.0000   1.0000   1.0000   1.0000   1.0000   1.0000   1.0000   1.0000
        1.0000   1.0000   1.0000   1.0000   1.0000   1.0000   1.0000   1.0000
        1.0000   1.0000   1.0000   1.0000   1.0000   1.0000   1.0000   1.0000
        1.0000   1.0000   1.0000   1.0000   1.0000   1.0000   1.0000   1.0000
        1.0000   1.0000   1.0000   1.0000   1.0000   1.0000   0.0000   0.0000
        0.0000   0.0000   0.0000   0.0000   0.0000   0.0000   0.0000

     Estimated max dynamical RAM per process >     161.20MB

     Estimated total allocated dynamical RAM >   10316.64MB
     Generating pointlists ...
     new r_m :   0.0391 (alat units)  1.1113 (a.u.) for type    1
     new r_m :   0.0375 (alat units)  1.0668 (a.u.) for type    2

     Initial potential from superposition of free atoms
     Check: negative starting charge=(component1):   -0.003141
     Check: negative starting charge=(component2):   -0.001047

     starting charge  284.99101, renormalised to  285.00000

     negative rho (up, down):  3.141E-03 1.047E-03
     Starting wfc are  284 randomized atomic wfcs

     total cpu time spent up to now is        6.4 secs

     per-process dynamical memory:   153.6 Mb

     Self-consistent Calculation

     iteration #  1     ecut=    55.00 Ry     beta=0.70
     Davidson diagonalization with overlap
     ethr =  1.00E-02,  avg # of iterations =  2.0

     negative rho (up, down):  5.140E-04 1.064E-04

     total cpu time spent up to now is       11.0 secs

     total energy              =    -914.76265750 Ry
     Harris-Foulkes estimate   =    -914.81306065 Ry
     estimated scf accuracy    <      17.09149234 Ry

     total magnetization       =     1.00 Bohr mag/cell
     absolute magnetization    =    10.41 Bohr mag/cell

     iteration #  2     ecut=    55.00 Ry     beta=0.70
     Davidson diagonalization with overlap
     ethr =  6.00E-03,  avg # of iterations =  3.5

     negative rho (up, down):  2.523E-04 3.279E-05

     total cpu time spent up to now is       16.0 secs

     total energy              =    -916.55178311 Ry
     Harris-Foulkes estimate   =    -922.33674132 Ry
     estimated scf accuracy    <      12.33598830 Ry

     total magnetization       =     1.00 Bohr mag/cell
     absolute magnetization    =     4.64 Bohr mag/cell

     iteration #  3     ecut=    55.00 Ry     beta=0.70
     Davidson diagonalization with overlap
     ethr =  4.33E-03,  avg # of iterations =  4.0

     negative rho (up, down):  1.141E-04 7.346E-06

     total cpu time spent up to now is       20.6 secs

     total energy              =    -919.02305034 Ry
     Harris-Foulkes estimate   =    -921.16419667 Ry
     estimated scf accuracy    <       5.65799665 Ry

     total magnetization       =     1.00 Bohr mag/cell
     absolute magnetization    =     4.44 Bohr mag/cell

     iteration #  4     ecut=    55.00 Ry     beta=0.70
     Davidson diagonalization with overlap
     ethr =  1.99E-03,  avg # of iterations =  5.0

     negative rho (up, down):  7.770E-07 5.961E-11

     total cpu time spent up to now is       24.8 secs

     total energy              =    -920.31463767 Ry
     Harris-Foulkes estimate   =    -920.30928960 Ry
     estimated scf accuracy    <       0.32798923 Ry

     total magnetization       =     1.00 Bohr mag/cell
     absolute magnetization    =     3.17 Bohr mag/cell

     iteration #  5     ecut=    55.00 Ry     beta=0.70
     Davidson diagonalization with overlap
     ethr =  1.15E-04,  avg # of iterations =  7.5

     negative rho (up, down):  3.438E-08 0.000E+00

     total cpu time spent up to now is       30.3 secs

     total energy              =    -920.15975268 Ry
     Harris-Foulkes estimate   =    -920.56458685 Ry
     estimated scf accuracy    <       2.46236460 Ry

     total magnetization       =     1.00 Bohr mag/cell
     absolute magnetization    =     1.98 Bohr mag/cell

     iteration #  6     ecut=    55.00 Ry     beta=0.70
     Davidson diagonalization with overlap
     ethr =  1.15E-04,  avg # of iterations =  5.5

     total cpu time spent up to now is       34.5 secs

     total energy              =    -920.41044691 Ry
     Harris-Foulkes estimate   =    -920.44820185 Ry
     estimated scf accuracy    <       0.13644185 Ry

     total magnetization       =     1.00 Bohr mag/cell
     absolute magnetization    =     1.91 Bohr mag/cell

     iteration #  7     ecut=    55.00 Ry     beta=0.70
     Davidson diagonalization with overlap
     ethr =  4.79E-05,  avg # of iterations = 10.0

     total cpu time spent up to now is       39.8 secs

     total energy              =    -920.42399992 Ry
     Harris-Foulkes estimate   =    -920.42717176 Ry
     estimated scf accuracy    <       0.04644454 Ry

     total magnetization       =     1.00 Bohr mag/cell
     absolute magnetization    =     1.62 Bohr mag/cell

     iteration #  8     ecut=    55.00 Ry     beta=0.70
     Davidson diagonalization with overlap
     ethr =  1.63E-05,  avg # of iterations = 10.5

     total cpu time spent up to now is       44.7 secs

     total energy              =    -920.42475502 Ry
     Harris-Foulkes estimate   =    -920.42838254 Ry
     estimated scf accuracy    <       0.03329158 Ry

     total magnetization       =     1.00 Bohr mag/cell
     absolute magnetization    =     1.29 Bohr mag/cell

     iteration #  9     ecut=    55.00 Ry     beta=0.70
     Davidson diagonalization with overlap
     ethr =  1.17E-05,  avg # of iterations =  3.5

     total cpu time spent up to now is       48.2 secs

     total energy              =    -920.42200447 Ry
     Harris-Foulkes estimate   =    -920.42565272 Ry
     estimated scf accuracy    <       0.02132045 Ry

     total magnetization       =     1.00 Bohr mag/cell
     absolute magnetization    =     1.25 Bohr mag/cell

     iteration # 10     ecut=    55.00 Ry     beta=0.70
     Davidson diagonalization with overlap
     ethr =  7.48E-06,  avg # of iterations =  4.5

     total cpu time spent up to now is       51.8 secs

     total energy              =    -920.42059493 Ry
     Harris-Foulkes estimate   =    -920.42262534 Ry
     estimated scf accuracy    <       0.01068900 Ry

     total magnetization       =     1.00 Bohr mag/cell
     absolute magnetization    =     1.19 Bohr mag/cell

     iteration # 11     ecut=    55.00 Ry     beta=0.70
     Davidson diagonalization with overlap
     ethr =  3.75E-06,  avg # of iterations =  5.5

     total cpu time spent up to now is       55.7 secs

     total energy              =    -920.41974514 Ry
     Harris-Foulkes estimate   =    -920.42103796 Ry
     estimated scf accuracy    <       0.00452849 Ry

     total magnetization       =     1.00 Bohr mag/cell
     absolute magnetization    =     1.18 Bohr mag/cell

     iteration # 12     ecut=    55.00 Ry     beta=0.70
     Davidson diagonalization with overlap
     ethr =  1.59E-06,  avg # of iterations =  6.0

     total cpu time spent up to now is       59.9 secs

     total energy              =    -920.41982623 Ry
     Harris-Foulkes estimate   =    -920.42016592 Ry
     estimated scf accuracy    <       0.00085159 Ry

     total magnetization       =     1.00 Bohr mag/cell
     absolute magnetization    =     1.20 Bohr mag/cell

     iteration # 13     ecut=    55.00 Ry     beta=0.70
     Davidson diagonalization with overlap
     ethr =  2.99E-07,  avg # of iterations =  5.0

     total cpu time spent up to now is       64.5 secs

     total energy              =    -920.42564348 Ry
     Harris-Foulkes estimate   =    -920.42732033 Ry
     estimated scf accuracy    <       0.31997791 Ry

     total magnetization       =     1.00 Bohr mag/cell
     absolute magnetization    =     2.60 Bohr mag/cell

     iteration # 14     ecut=    55.00 Ry     beta=0.70
     Davidson diagonalization with overlap
     ethr =  2.99E-07,  avg # of iterations =  2.0

     total cpu time spent up to now is       67.9 secs

     total energy              =    -920.42902061 Ry
     Harris-Foulkes estimate   =    -920.42565792 Ry
     estimated scf accuracy    <       0.31177622 Ry

     total magnetization       =     1.00 Bohr mag/cell
     absolute magnetization    =     2.60 Bohr mag/cell

     iteration # 15     ecut=    55.00 Ry     beta=0.70
     Davidson diagonalization with overlap
     ethr =  2.99E-07,  avg # of iterations =  3.5

     total cpu time spent up to now is       71.5 secs

     total energy              =    -920.42904584 Ry
     Harris-Foulkes estimate   =    -920.42906790 Ry
     estimated scf accuracy    <       0.32892765 Ry

     total magnetization       =     1.00 Bohr mag/cell
     absolute magnetization    =     2.61 Bohr mag/cell

     iteration # 16     ecut=    55.00 Ry     beta=0.70
     Davidson diagonalization with overlap
     ethr =  2.99E-07,  avg # of iterations =  2.0

     total cpu time spent up to now is       74.9 secs

     total energy              =    -920.42908171 Ry
     Harris-Foulkes estimate   =    -920.43026795 Ry
     estimated scf accuracy    <       1.21747698 Ry

     total magnetization       =     1.00 Bohr mag/cell
     absolute magnetization    =     1.26 Bohr mag/cell

     iteration # 17     ecut=    55.00 Ry     beta=0.70
     Davidson diagonalization with overlap
     ethr =  2.99E-07,  avg # of iterations =  1.0

     total cpu time spent up to now is       78.1 secs

     total energy              =    -920.43063168 Ry
     Harris-Foulkes estimate   =    -920.42908342 Ry
     estimated scf accuracy    <       1.21312207 Ry

     total magnetization       =     1.00 Bohr mag/cell
     absolute magnetization    =     1.26 Bohr mag/cell

     iteration # 18     ecut=    55.00 Ry     beta=0.70
     Davidson diagonalization with overlap
     ethr =  2.99E-07,  avg # of iterations =  1.0

     total cpu time spent up to now is       81.4 secs

     total energy              =    -920.42551168 Ry
     Harris-Foulkes estimate   =    -920.43063494 Ry
     estimated scf accuracy    <       1.22044978 Ry

     total magnetization       =     1.00 Bohr mag/cell
     absolute magnetization    =     1.25 Bohr mag/cell

     iteration # 19     ecut=    55.00 Ry     beta=0.70
     Davidson diagonalization with overlap
     ethr =  2.99E-07,  avg # of iterations =  2.0

     total cpu time spent up to now is       84.9 secs

     total energy              =    -920.42831096 Ry
     Harris-Foulkes estimate   =    -920.42774431 Ry
     estimated scf accuracy    <       0.32327340 Ry

     total magnetization       =     1.00 Bohr mag/cell
     absolute magnetization    =     2.60 Bohr mag/cell

     iteration # 20     ecut=    55.00 Ry     beta=0.70
     Davidson diagonalization with overlap
     ethr =  2.99E-07,  avg # of iterations =  1.0

     total cpu time spent up to now is       88.1 secs

     total energy              =    -920.42923943 Ry
     Harris-Foulkes estimate   =    -920.42831591 Ry
     estimated scf accuracy    <       0.32580391 Ry

     total magnetization       =     1.00 Bohr mag/cell
     absolute magnetization    =     2.60 Bohr mag/cell

     iteration # 21     ecut=    55.00 Ry     beta=0.70
     Davidson diagonalization with overlap
     ethr =  2.99E-07,  avg # of iterations =  1.0

     negative rho (up, down):  3.095E-04 0.000E+00

     total cpu time spent up to now is       91.3 secs

     total energy              =    -920.33144928 Ry
     Harris-Foulkes estimate   =    -920.42924185 Ry
     estimated scf accuracy    <       0.32749314 Ry

     total magnetization       =     1.00 Bohr mag/cell
     absolute magnetization    =     2.61 Bohr mag/cell

     iteration # 22     ecut=    55.00 Ry     beta=0.70
     Davidson diagonalization with overlap
     ethr =  2.99E-07,  avg # of iterations = 17.0

     total cpu time spent up to now is      100.3 secs

     total energy              =    -920.40229073 Ry
     Harris-Foulkes estimate   =    -920.42958526 Ry
     estimated scf accuracy    <       0.12883791 Ry

     total magnetization       =     1.00 Bohr mag/cell
     absolute magnetization    =     1.28 Bohr mag/cell

     iteration # 23     ecut=    55.00 Ry     beta=0.70
     Davidson diagonalization with overlap
     ethr =  2.99E-07,  avg # of iterations =  7.5

     total cpu time spent up to now is      107.5 secs

     total energy              =    -920.40954020 Ry
     Harris-Foulkes estimate   =    -920.40865302 Ry
     estimated scf accuracy    <       0.10341011 Ry

     total magnetization       =     1.00 Bohr mag/cell
     absolute magnetization    =     2.65 Bohr mag/cell

     iteration # 24     ecut=    55.00 Ry     beta=0.70
     Davidson diagonalization with overlap
     ethr =  2.99E-07,  avg # of iterations =  5.5

     total cpu time spent up to now is      113.0 secs

     total energy              =    -920.39738110 Ry
     Harris-Foulkes estimate   =    -920.41093592 Ry
     estimated scf accuracy    <       0.12141151 Ry

     total magnetization       =     1.00 Bohr mag/cell
     absolute magnetization    =     2.74 Bohr mag/cell

     iteration # 25     ecut=    55.00 Ry     beta=0.70
     Davidson diagonalization with overlap
     ethr =  2.99E-07,  avg # of iterations =  5.0

     total cpu time spent up to now is      118.7 secs

     total energy              =    -920.38298143 Ry
     Harris-Foulkes estimate   =    -920.39774695 Ry
     estimated scf accuracy    <       0.10961871 Ry

     total magnetization       =     1.00 Bohr mag/cell
     absolute magnetization    =     2.68 Bohr mag/cell

     iteration # 26     ecut=    55.00 Ry     beta=0.70
     Davidson diagonalization with overlap
     ethr =  2.99E-07,  avg # of iterations =  5.0

     total cpu time spent up to now is      123.9 secs

     total energy              =    -920.37022965 Ry
     Harris-Foulkes estimate   =    -920.38292264 Ry
     estimated scf accuracy    <       0.11743653 Ry

     total magnetization       =     1.00 Bohr mag/cell
     absolute magnetization    =     2.61 Bohr mag/cell

     iteration # 27     ecut=    55.00 Ry     beta=0.70
     Davidson diagonalization with overlap
     ethr =  2.99E-07,  avg # of iterations =  5.0

     total cpu time spent up to now is      128.3 secs

     total energy              =    -920.39300523 Ry
     Harris-Foulkes estimate   =    -920.37023700 Ry
     estimated scf accuracy    <       0.13768857 Ry

     total magnetization       =     1.00 Bohr mag/cell
     absolute magnetization    =     2.56 Bohr mag/cell

     iteration # 28     ecut=    55.00 Ry     beta=0.70
     Davidson diagonalization with overlap
     ethr =  2.99E-07,  avg # of iterations =  7.5

     total cpu time spent up to now is      135.1 secs

     total energy              =    -920.42257440 Ry
     Harris-Foulkes estimate   =    -920.42243640 Ry
     estimated scf accuracy    <       0.07291539 Ry

     total magnetization       =     1.00 Bohr mag/cell
     absolute magnetization    =     1.29 Bohr mag/cell

     iteration # 29     ecut=    55.00 Ry     beta=0.70
     Davidson diagonalization with overlap
     ethr =  2.99E-07,  avg # of iterations =  6.5

     total cpu time spent up to now is      140.5 secs

     total energy              =    -920.42036690 Ry
     Harris-Foulkes estimate   =    -920.42301199 Ry
     estimated scf accuracy    <       0.05196842 Ry

     total magnetization       =     1.00 Bohr mag/cell
     absolute magnetization    =     1.26 Bohr mag/cell

     iteration # 30     ecut=    55.00 Ry     beta=0.70
     Davidson diagonalization with overlap
     ethr =  2.99E-07,  avg # of iterations =  5.5

     total cpu time spent up to now is      146.6 secs

     total energy              =    -920.42076148 Ry
     Harris-Foulkes estimate   =    -920.42156812 Ry
     estimated scf accuracy    <       0.02393017 Ry

     total magnetization       =     1.00 Bohr mag/cell
     absolute magnetization    =     1.23 Bohr mag/cell

     iteration # 31     ecut=    55.00 Ry     beta=0.70
     Davidson diagonalization with overlap
     ethr =  2.99E-07,  avg # of iterations =  3.0

     total cpu time spent up to now is      150.1 secs

     total energy              =    -920.41862683 Ry
     Harris-Foulkes estimate   =    -920.42080186 Ry
     estimated scf accuracy    <       0.02603425 Ry

     total magnetization       =     1.00 Bohr mag/cell
     absolute magnetization    =     1.24 Bohr mag/cell

     iteration # 32     ecut=    55.00 Ry     beta=0.70
     Davidson diagonalization with overlap
     ethr =  2.99E-07,  avg # of iterations =  6.0

     total cpu time spent up to now is      155.6 secs

     total energy              =    -920.41994201 Ry
     Harris-Foulkes estimate   =    -920.42017950 Ry
     estimated scf accuracy    <       0.20837606 Ry

     total magnetization       =     1.00 Bohr mag/cell
     absolute magnetization    =     2.63 Bohr mag/cell

     iteration # 33     ecut=    55.00 Ry     beta=0.70
     Davidson diagonalization with overlap
     ethr =  2.99E-07,  avg # of iterations =  4.5

     total cpu time spent up to now is      159.9 secs

     total energy              =    -920.41941228 Ry
     Harris-Foulkes estimate   =    -920.42010348 Ry
     estimated scf accuracy    <       0.00647029 Ry

     total magnetization       =     1.00 Bohr mag/cell
     absolute magnetization    =     1.21 Bohr mag/cell

     iteration # 34     ecut=    55.00 Ry     beta=0.70
     Davidson diagonalization with overlap
     ethr =  2.99E-07,  avg # of iterations =  5.0

     total cpu time spent up to now is      164.9 secs

     total energy              =    -920.42330060 Ry
     Harris-Foulkes estimate   =    -920.42587237 Ry
     estimated scf accuracy    <       0.27813888 Ry

     total magnetization       =     1.00 Bohr mag/cell
     absolute magnetization    =     2.62 Bohr mag/cell

     iteration # 35     ecut=    55.00 Ry     beta=0.70
     Davidson diagonalization with overlap
     ethr =  2.99E-07,  avg # of iterations =  3.5

     total cpu time spent up to now is      168.5 secs

     total energy              =    -920.42056587 Ry
     Harris-Foulkes estimate   =    -920.42333709 Ry
     estimated scf accuracy    <       0.26466482 Ry

     total magnetization       =     1.00 Bohr mag/cell
     absolute magnetization    =     2.62 Bohr mag/cell

     iteration # 36     ecut=    55.00 Ry     beta=0.70
     Davidson diagonalization with overlap
     ethr =  2.99E-07,  avg # of iterations =  4.0

     total cpu time spent up to now is      172.2 secs

     total energy              =    -920.42039542 Ry
     Harris-Foulkes estimate   =    -920.42060345 Ry
     estimated scf accuracy    <       0.25114437 Ry

     total magnetization       =     1.00 Bohr mag/cell
     absolute magnetization    =     2.61 Bohr mag/cell

     iteration # 37     ecut=    55.00 Ry     beta=0.70
     Davidson diagonalization with overlap
     ethr =  2.99E-07,  avg # of iterations =  1.0

     total cpu time spent up to now is      175.4 secs

     total energy              =    -920.41603385 Ry
     Harris-Foulkes estimate   =    -920.42039791 Ry
     estimated scf accuracy    <       0.25051375 Ry

     total magnetization       =     1.00 Bohr mag/cell
     absolute magnetization    =     2.61 Bohr mag/cell

     iteration # 38     ecut=    55.00 Ry     beta=0.70
     Davidson diagonalization with overlap
     ethr =  2.99E-07,  avg # of iterations =  3.5

     total cpu time spent up to now is      179.0 secs

     total energy              =    -920.42104486 Ry
     Harris-Foulkes estimate   =    -920.42093381 Ry
     estimated scf accuracy    <       0.00548964 Ry

     total magnetization       =     1.00 Bohr mag/cell
     absolute magnetization    =     1.21 Bohr mag/cell

     iteration # 39     ecut=    55.00 Ry     beta=0.70
     Davidson diagonalization with overlap
     ethr =  2.99E-07,  avg # of iterations =  1.5

     total cpu time spent up to now is      182.2 secs

     total energy              =    -920.42103350 Ry
     Harris-Foulkes estimate   =    -920.42105340 Ry
     estimated scf accuracy    <       0.00602899 Ry

     total magnetization       =     1.00 Bohr mag/cell
     absolute magnetization    =     1.21 Bohr mag/cell

     iteration # 40     ecut=    55.00 Ry     beta=0.70
     Davidson diagonalization with overlap
     ethr =  2.99E-07,  avg # of iterations =  1.0

     total cpu time spent up to now is      185.4 secs

     total energy              =    -920.42077246 Ry
     Harris-Foulkes estimate   =    -920.42103579 Ry
     estimated scf accuracy    <       0.00600156 Ry

     total magnetization       =     1.00 Bohr mag/cell
     absolute magnetization    =     1.21 Bohr mag/cell

     iteration # 41     ecut=    55.00 Ry     beta=0.70
     Davidson diagonalization with overlap
     ethr =  2.99E-07,  avg # of iterations =  2.5

     total cpu time spent up to now is      188.8 secs

     total energy              =    -920.42065687 Ry
     Harris-Foulkes estimate   =    -920.42078566 Ry
     estimated scf accuracy    <       0.00496304 Ry

     total magnetization       =     1.00 Bohr mag/cell
     absolute magnetization    =     1.21 Bohr mag/cell

     iteration # 42     ecut=    55.00 Ry     beta=0.70
     Davidson diagonalization with overlap
     ethr =  2.99E-07,  avg # of iterations =  2.5

     total cpu time spent up to now is      192.5 secs

     total energy              =    -920.42065106 Ry
     Harris-Foulkes estimate   =    -920.42066497 Ry
     estimated scf accuracy    <       0.00424876 Ry

     total magnetization       =     1.00 Bohr mag/cell
     absolute magnetization    =     1.21 Bohr mag/cell

     iteration # 43     ecut=    55.00 Ry     beta=0.70
     Davidson diagonalization with overlap
     ethr =  2.99E-07,  avg # of iterations =  1.0

     total cpu time spent up to now is      195.7 secs

     total energy              =    -920.42060494 Ry
     Harris-Foulkes estimate   =    -920.42065189 Ry
     estimated scf accuracy    <       0.00428572 Ry

     total magnetization       =     1.00 Bohr mag/cell
     absolute magnetization    =     1.21 Bohr mag/cell

     iteration # 44     ecut=    55.00 Ry     beta=0.70
     Davidson diagonalization with overlap
     ethr =  2.99E-07,  avg # of iterations =  1.0

     total cpu time spent up to now is      198.9 secs

     total energy              =    -920.42070633 Ry
     Harris-Foulkes estimate   =    -920.42060579 Ry
     estimated scf accuracy    <       0.00412602 Ry

     total magnetization       =     1.00 Bohr mag/cell
     absolute magnetization    =     1.21 Bohr mag/cell

     iteration # 45     ecut=    55.00 Ry     beta=0.70
     Davidson diagonalization with overlap
     ethr =  2.99E-07,  avg # of iterations =  1.5

     total cpu time spent up to now is      202.3 secs

     total energy              =    -920.42083222 Ry
     Harris-Foulkes estimate   =    -920.42070974 Ry
     estimated scf accuracy    <       0.00461364 Ry

     total magnetization       =     1.00 Bohr mag/cell
     absolute magnetization    =     1.21 Bohr mag/cell

     iteration # 46     ecut=    55.00 Ry     beta=0.70
     Davidson diagonalization with overlap
     ethr =  2.99E-07,  avg # of iterations =  2.0

     total cpu time spent up to now is      205.7 secs

     total energy              =    -920.41861594 Ry
     Harris-Foulkes estimate   =    -920.42083926 Ry
     estimated scf accuracy    <       0.00535220 Ry

     total magnetization       =     1.00 Bohr mag/cell
     absolute magnetization    =     1.21 Bohr mag/cell

     iteration # 47     ecut=    55.00 Ry     beta=0.70
     Davidson diagonalization with overlap
     ethr =  2.99E-07,  avg # of iterations =  6.5

     total cpu time spent up to now is      211.6 secs

     total energy              =    -920.41682068 Ry
     Harris-Foulkes estimate   =    -920.43099989 Ry
     estimated scf accuracy    <       0.33372443 Ry

     total magnetization       =     1.00 Bohr mag/cell
     absolute magnetization    =     2.62 Bohr mag/cell

     iteration # 48     ecut=    55.00 Ry     beta=0.70
     Davidson diagonalization with overlap
     ethr =  2.99E-07,  avg # of iterations =  5.5

     total cpu time spent up to now is      217.2 secs

     total energy              =    -920.42054064 Ry
     Harris-Foulkes estimate   =    -920.42063708 Ry
     estimated scf accuracy    <       0.00398097 Ry

     total magnetization       =     1.00 Bohr mag/cell
     absolute magnetization    =     1.21 Bohr mag/cell

     iteration # 49     ecut=    55.00 Ry     beta=0.70
     Davidson diagonalization with overlap
     ethr =  2.99E-07,  avg # of iterations =  1.5

     total cpu time spent up to now is      220.5 secs

     total energy              =    -920.42043570 Ry
     Harris-Foulkes estimate   =    -920.42054711 Ry
     estimated scf accuracy    <       0.00346363 Ry

     total magnetization       =     1.00 Bohr mag/cell
     absolute magnetization    =     1.22 Bohr mag/cell

     iteration # 50     ecut=    55.00 Ry     beta=0.70
     Davidson diagonalization with overlap
     ethr =  2.99E-07,  avg # of iterations =  2.5

     total cpu time spent up to now is      224.0 secs

     total energy              =    -920.42043234 Ry
     Harris-Foulkes estimate   =    -920.42044511 Ry
     estimated scf accuracy    <       0.00282500 Ry

     total magnetization       =     1.00 Bohr mag/cell
     absolute magnetization    =     1.22 Bohr mag/cell

     iteration # 51     ecut=    55.00 Ry     beta=0.70
     Davidson diagonalization with overlap
     ethr =  2.99E-07,  avg # of iterations =  1.0

     total cpu time spent up to now is      227.2 secs

     total energy              =    -920.42037063 Ry
     Harris-Foulkes estimate   =    -920.42043328 Ry
     estimated scf accuracy    <       0.00274735 Ry

     total magnetization       =     1.00 Bohr mag/cell
     absolute magnetization    =     1.22 Bohr mag/cell

     iteration # 52     ecut=    55.00 Ry     beta=0.70
     Davidson diagonalization with overlap
     ethr =  2.99E-07,  avg # of iterations =  1.5

     total cpu time spent up to now is      230.4 secs

     total energy              =    -920.41972265 Ry
     Harris-Foulkes estimate   =    -920.42055977 Ry
     estimated scf accuracy    <       0.26174414 Ry

     total magnetization       =     1.00 Bohr mag/cell
     absolute magnetization    =     2.61 Bohr mag/cell

     iteration # 53     ecut=    55.00 Ry     beta=0.70
     Davidson diagonalization with overlap
     ethr =  2.99E-07,  avg # of iterations =  1.5

     total cpu time spent up to now is      233.7 secs

     total energy              =    -920.42047982 Ry
     Harris-Foulkes estimate   =    -920.42045825 Ry
     estimated scf accuracy    <       0.00285568 Ry

     total magnetization       =     1.00 Bohr mag/cell
     absolute magnetization    =     1.22 Bohr mag/cell

     iteration # 54     ecut=    55.00 Ry     beta=0.70
     Davidson diagonalization with overlap
     ethr =  2.99E-07,  avg # of iterations =  1.0

     total cpu time spent up to now is      236.9 secs

     total energy              =    -920.42052231 Ry
     Harris-Foulkes estimate   =    -920.42048057 Ry
     estimated scf accuracy    <       0.00297605 Ry

     total magnetization       =     1.00 Bohr mag/cell
     absolute magnetization    =     1.22 Bohr mag/cell

     iteration # 55     ecut=    55.00 Ry     beta=0.70
     Davidson diagonalization with overlap
     ethr =  2.99E-07,  avg # of iterations =  1.0

     total cpu time spent up to now is      240.1 secs

     total energy              =    -920.42050416 Ry
     Harris-Foulkes estimate   =    -920.42052400 Ry
     estimated scf accuracy    <       0.00322347 Ry

     total magnetization       =     1.00 Bohr mag/cell
     absolute magnetization    =     1.22 Bohr mag/cell

     iteration # 56     ecut=    55.00 Ry     beta=0.70
     Davidson diagonalization with overlap
     ethr =  2.99E-07,  avg # of iterations =  1.0

     total cpu time spent up to now is      243.3 secs

     total energy              =    -920.42064090 Ry
     Harris-Foulkes estimate   =    -920.42050478 Ry
     estimated scf accuracy    <       0.00311034 Ry

     total magnetization       =     1.00 Bohr mag/cell
     absolute magnetization    =     1.22 Bohr mag/cell

     iteration # 57     ecut=    55.00 Ry     beta=0.70
     Davidson diagonalization with overlap
     ethr =  2.99E-07,  avg # of iterations =  2.5

     total cpu time spent up to now is      246.9 secs

     total energy              =    -920.42063519 Ry
     Harris-Foulkes estimate   =    -920.42065504 Ry
     estimated scf accuracy    <       0.00399672 Ry

     total magnetization       =     1.00 Bohr mag/cell
     absolute magnetization    =     1.21 Bohr mag/cell

     iteration # 58     ecut=    55.00 Ry     beta=0.70
     Davidson diagonalization with overlap
     ethr =  2.99E-07,  avg # of iterations =  1.0

     total cpu time spent up to now is      250.1 secs

     total energy              =    -920.42061182 Ry
     Harris-Foulkes estimate   =    -920.42063605 Ry
     estimated scf accuracy    <       0.00391271 Ry

     total magnetization       =     1.00 Bohr mag/cell
     absolute magnetization    =     1.21 Bohr mag/cell

     iteration # 59     ecut=    55.00 Ry     beta=0.70
     Davidson diagonalization with overlap
     ethr =  2.99E-07,  avg # of iterations =  1.0

     total cpu time spent up to now is      253.3 secs

     total energy              =    -920.42058777 Ry
     Harris-Foulkes estimate   =    -920.42061210 Ry
     estimated scf accuracy    <       0.00381586 Ry

     total magnetization       =     1.00 Bohr mag/cell
     absolute magnetization    =     1.21 Bohr mag/cell

     iteration # 60     ecut=    55.00 Ry     beta=0.70
     Davidson diagonalization with overlap
     ethr =  2.99E-07,  avg # of iterations =  1.0
 
     Magnetic moment per site:
     atom:    1    charge:    0.8211    magn:    0.0009    constr:    0.0000
     atom:    2    charge:    0.8357    magn:    0.0013    constr:    0.0000
     atom:    3    charge:    0.8451    magn:    0.0001    constr:    0.0000
     atom:    4    charge:    0.8430    magn:    0.0009    constr:    0.0000
     atom:    5    charge:    0.8386    magn:    0.0004    constr:    0.0000
     atom:    6    charge:    0.8330    magn:    0.0037    constr:    0.0000
     atom:    7    charge:    0.8306    magn:    0.0014    constr:    0.0000
     atom:    8    charge:    0.8020    magn:    0.0032    constr:    0.0000
     atom:    9    charge:    0.8532    magn:    0.0062    constr:    0.0000
     atom:   10    charge:    0.8510    magn:    0.0052    constr:    0.0000
     atom:   11    charge:    0.8429    magn:    0.0018    constr:    0.0000
     atom:   12    charge:    0.8401    magn:    0.0004    constr:    0.0000
     atom:   13    charge:    0.8384    magn:    0.0005    constr:    0.0000
     atom:   14    charge:    0.8216    magn:    0.0097    constr:    0.0000
     atom:   15    charge:    0.7636    magn:    0.0651    constr:    0.0000
     atom:   16    charge:    0.8724    magn:    0.0204    constr:    0.0000
     atom:   17    charge:    0.8507    magn:    0.0052    constr:    0.0000
     atom:   18    charge:    0.8430    magn:    0.0009    constr:    0.0000
     atom:   19    charge:    0.8467    magn:    0.0004    constr:    0.0000
     atom:   20    charge:    0.8702    magn:    0.0037    constr:    0.0000
     atom:   21    charge:    2.4011    magn:    0.0096    constr:    0.0000
     atom:   22    charge:    0.7637    magn:    0.0651    constr:    0.0000
     atom:   23    charge:    0.8527    magn:    0.0062    constr:    0.0000
     atom:   24    charge:    0.8464    magn:    0.0001    constr:    0.0000
     atom:   25    charge:    0.8452    magn:    0.0004    constr:    0.0000
     atom:   26    charge:    0.8582    magn:    0.0021    constr:    0.0000
     atom:   27    charge:    0.8709    magn:    0.0037    constr:    0.0000
     atom:   28    charge:    0.8214    magn:    0.0097    constr:    0.0000
     atom:   29    charge:    0.8021    magn:    0.0032    constr:    0.0000
     atom:   30    charge:    0.8339    magn:    0.0013    constr:    0.0000
     atom:   31    charge:    0.8366    magn:    0.0038    constr:    0.0000
     atom:   32    charge:    0.8455    magn:    0.0004    constr:    0.0000
     atom:   33    charge:    0.8478    magn:    0.0004    constr:    0.0000
     atom:   34    charge:    0.8368    magn:    0.0005    constr:    0.0000
     atom:   35    charge:    0.8299    magn:    0.0014    constr:    0.0000
     atom:   36    charge:    0.8215    magn:    0.0009    constr:    0.0000
     atom:   37    charge:    2.5786    magn:   -0.0013    constr:    0.0000
     atom:   38    charge:    2.5836    magn:    0.0023    constr:    0.0000
     atom:   39    charge:    2.5870    magn:    0.0001    constr:    0.0000
     atom:   40    charge:    2.5743    magn:   -0.0005    constr:    0.0000
     atom:   41    charge:    2.5674    magn:   -0.0011    constr:    0.0000
     atom:   42    charge:    2.5606    magn:   -0.0012    constr:    0.0000
     atom:   43    charge:    2.5579    magn:   -0.0015    constr:    0.0000
     atom:   44    charge:    2.5817    magn:    0.0018    constr:    0.0000
     atom:   45    charge:    2.5826    magn:   -0.0024    constr:    0.0000
     atom:   46    charge:    2.5833    magn:   -0.0014    constr:    0.0000
     atom:   47    charge:    2.5766    magn:   -0.0005    constr:    0.0000
     atom:   48    charge:    2.5671    magn:   -0.0011    constr:    0.0000
     atom:   49    charge:    2.5601    magn:   -0.0022    constr:    0.0000
     atom:   50    charge:    2.5142    magn:   -0.0071    constr:    0.0000
     atom:   51    charge:    2.5916    magn:   -0.0090    constr:    0.0000
     atom:   52    charge:    2.5932    magn:   -0.0054    constr:    0.0000
     atom:   53    charge:    2.5754    magn:   -0.0014    constr:    0.0000
     atom:   54    charge:    2.5812    magn:   -0.0005    constr:    0.0000
     atom:   55    charge:    2.5861    magn:    0.0009    constr:    0.0000
     atom:   56    charge:    2.5425    magn:    0.0010    constr:    0.0000
     atom:   57    charge:    2.5893    magn:   -0.0090    constr:    0.0000
     atom:   58    charge:    2.5865    magn:   -0.0024    constr:    0.0000
     atom:   59    charge:    2.5865    magn:    0.0001    constr:    0.0000
     atom:   60    charge:    2.5841    magn:    0.0004    constr:    0.0000
     atom:   61    charge:    2.5921    magn:    0.0015    constr:    0.0000
     atom:   62    charge:    2.5430    magn:    0.0010    constr:    0.0000
     atom:   63    charge:    2.5156    magn:   -0.0071    constr:    0.0000
     atom:   64    charge:    2.5772    magn:    0.0018    constr:    0.0000
     atom:   65    charge:    2.5776    magn:    0.0023    constr:    0.0000
     atom:   66    charge:    2.5793    magn:   -0.0009    constr:    0.0000
     atom:   67    charge:    2.5769    magn:    0.0004    constr:    0.0000
     atom:   68    charge:    2.5892    magn:    0.0009    constr:    0.0000
     atom:   69    charge:    2.5603    magn:   -0.0022    constr:    0.0000
     atom:   70    charge:    2.5498    magn:   -0.0015    constr:    0.0000
     atom:   71    charge:    2.5749    magn:   -0.0013    constr:    0.0000

     total cpu time spent up to now is      256.5 secs

     End of self-consistent calculation

 ------ SPIN UP ------------


          k = 0.0000 0.0000 0.0000 (182351 PWs)   bands (ev):

   -25.6815 -22.1251 -21.8815 -21.4301 -21.2909 -21.2287 -21.0689 -20.9400
   -20.6317 -20.5239 -20.3539 -20.1832 -20.1625 -20.0972 -19.9897 -19.8401
   -19.6886 -19.6869 -19.5503 -19.4027 -19.2084 -19.0172 -18.9673 -18.8902
   -18.8822 -18.8072 -18.7261 -18.6414 -18.6160 -18.5920 -18.5390 -18.4029
   -18.3317 -18.1439 -17.7606 -16.6909 -13.8674 -13.7328 -13.1436 -12.8944
   -12.7198 -12.5033 -12.3308 -12.3174 -12.2857 -12.1598 -12.1145 -12.0584
   -12.0442 -12.0269 -11.8763 -11.8752 -11.6046 -11.4849 -11.3412 -11.2024
   -11.0919 -11.0323 -10.8881 -10.8554 -10.6285 -10.5259 -10.3005 -10.0778
   -10.0707  -9.8524  -9.8124  -9.6868  -9.6293  -9.5721  -9.5636  -9.4765
    -9.4177  -9.3974  -9.3174  -9.2837  -9.2635  -9.2551  -8.9934  -8.9665
    -8.9236  -8.8206  -8.8204  -8.5996  -8.5110  -8.4178  -8.4176  -8.3503
    -8.3121  -8.2447  -8.1424  -8.1195  -8.0736  -8.0607  -7.9627  -7.9285
    -7.8060  -7.8004  -7.7407  -7.6956  -7.6596  -7.5613  -7.4935  -7.4897
    -7.4071  -7.3591  -7.2631  -7.2179  -7.1964  -7.1799  -6.9194  -6.9182
    -6.8669  -6.7881  -6.7319  -6.5937  -6.5536  -6.5501  -6.5002  -6.3654
    -6.3557  -6.2072  -6.2003  -5.9242  -5.6407  -5.5775  -5.5311  -5.5101
    -5.4199  -5.3071  -5.2552  -5.2306  -5.1693  -5.0782  -5.0289  -4.9832
    -4.9550  -4.8054  -4.6816  -4.2849  -3.9894  -3.4146  -2.9908  -0.1300
     0.2622   0.5092   0.5143   0.5596   0.5922   0.8703   1.0272

 ------ SPIN DOWN ----------


          k = 0.0000 0.0000 0.0000 (182351 PWs)   bands (ev):

   -25.6979 -22.1291 -21.8794 -21.4277 -21.2900 -21.2263 -21.0656 -20.9380
   -20.6228 -20.5218 -20.3513 -20.1804 -20.1573 -20.0959 -19.9881 -19.8373
   -19.6828 -19.6817 -19.5416 -19.3983 -19.2043 -19.0164 -18.9583 -18.8888
   -18.8820 -18.8069 -18.7250 -18.6390 -18.6129 -18.5924 -18.5341 -18.3977
   -18.3299 -18.1415 -17.7555 -16.7029 -13.8637 -13.7241 -13.1404 -12.8867
   -12.7101 -12.4968 -12.3233 -12.3130 -12.2772 -12.1569 -12.0974 -12.0522
   -12.0308 -12.0243 -11.8674 -11.8592 -11.5922 -11.4758 -11.3069 -11.1955
   -11.0759 -11.0224 -10.8584 -10.8389 -10.6584 -10.5088 -10.2651 -10.0723
   -10.0610  -9.8421  -9.8092  -9.6784  -9.6242  -9.5616  -9.5609  -9.4633
    -9.4122  -9.3847  -9.3116  -9.2719  -9.2604  -9.2369  -8.9848  -8.9493
    -8.9110  -8.8098  -8.8010  -8.5895  -8.4943  -8.4122  -8.3926  -8.3418
    -8.2980  -8.2401  -8.1382  -8.1117  -8.0713  -8.0309  -7.9615  -7.9209
    -7.8003  -7.7687  -7.7387  -7.6931  -7.6563  -7.5580  -7.4864  -7.4789
    -7.4006  -7.3453  -7.2485  -7.2031  -7.1855  -7.1520  -6.9127  -6.9074
    -6.8597  -6.7735  -6.7170  -6.5675  -6.5516  -6.5119  -6.4730  -6.3640
    -6.2907  -6.1989  -6.1900  -5.9188  -5.5960  -5.5734  -5.5090  -5.4901
    -5.4094  -5.3013  -5.2468  -5.2272  -5.1634  -5.0649  -5.0122  -4.9625
    -4.9432  -4.7984  -4.6336  -4.2567  -3.9721  -3.0551  -3.0282   0.3104
     0.4828   0.5369   0.5425   0.6363   0.6770   0.9589   1.0595

     highest occupied, lowest unoccupied level (ev):    -3.0551   -3.0282

!    total energy              =    -920.41789862 Ry
     Harris-Foulkes estimate   =    -920.42058800 Ry
     estimated scf accuracy    <       0.00371682 Ry

     The total energy is the sum of the following terms:

     one-electron contribution =   -7780.37082823 Ry
     hartree contribution      =    3942.01878719 Ry
     xc contribution           =    -262.10717397 Ry
     ewald contribution        =    3180.04131639 Ry

     total magnetization       =     1.00 Bohr mag/cell
     absolute magnetization    =     1.21 Bohr mag/cell

     convergence has been achieved in  60 iterations

     Forces acting on atoms (cartesian axes, Ry/au):

     atom    1 type  1   force =    -0.00219899    0.00094027    0.00000000
     atom    2 type  1   force =     0.01185550    0.00383024    0.00000000
     atom    3 type  1   force =     0.01323718    0.00318488    0.00000000
     atom    4 type  1   force =     0.01106634    0.00240469    0.00000000
     atom    5 type  1   force =     0.00077850    0.00564782    0.00000000
     atom    6 type  1   force =    -0.00276408    0.00158559    0.00000000
     atom    7 type  1   force =    -0.01479036   -0.00288967    0.00000000
     atom    8 type  1   force =     0.00421006    0.00530979    0.00000000
     atom    9 type  1   force =     0.02068253    0.01959096    0.00000000
     atom   10 type  1   force =     0.01294113    0.00176887    0.00000000
     atom   11 type  1   force =     0.00695827   -0.00405042    0.00000000
     atom   12 type  1   force =    -0.00444290   -0.00347395    0.00000000
     atom   13 type  1   force =    -0.00767378   -0.01573267    0.00000000
     atom   14 type  1   force =    -0.09351120   -0.01070768    0.00000000
     atom   15 type  1   force =     0.03035235    0.06084410    0.00000000
     atom   16 type  1   force =     0.01171059   -0.00669932    0.00000000
     atom   17 type  1   force =     0.00494485   -0.01228449    0.00000000
     atom   18 type  1   force =     0.00346877   -0.01071527    0.00000000
     atom   19 type  1   force =     0.00813251   -0.01327108    0.00000000
     atom   20 type  1   force =     0.04028108   -0.03060416    0.00000000
     atom   21 type  2   force =     0.09313145   -0.05401958    0.00000000
     atom   22 type  1   force =    -0.03743911   -0.05669042    0.00000000
     atom   23 type  1   force =    -0.00660464   -0.02770777    0.00000000
     atom   24 type  1   force =     0.00392377   -0.01294815    0.00000000
     atom   25 type  1   force =     0.00993718   -0.00940021    0.00000000
     atom   26 type  1   force =     0.02370874   -0.01363812    0.00000000
     atom   27 type  1   force =     0.04664557   -0.01952387    0.00000000
     atom   28 type  1   force =    -0.03744356    0.08641874    0.00000000
     atom   29 type  1   force =    -0.00248128   -0.00623150    0.00000000
     atom   30 type  1   force =     0.00265100   -0.01204720    0.00000000
     atom   31 type  1   force =     0.00685414   -0.00384461    0.00000000
     atom   32 type  1   force =     0.01309516   -0.00403693    0.00000000
     atom   33 type  1   force =     0.01565012   -0.00027872    0.00000000
     atom   34 type  1   force =     0.00978629    0.01442220    0.00000000
     atom   35 type  1   force =    -0.00490928    0.01427447    0.00000000
     atom   36 type  1   force =    -0.00181996    0.00156378    0.00000000
     atom   37 type  2   force =    -0.00320268   -0.00313825    0.00000000
     atom   38 type  2   force =    -0.00965096   -0.00246375    0.00000000
     atom   39 type  2   force =    -0.01211465   -0.00248626    0.00000000
     atom   40 type  2   force =    -0.01221799   -0.00614410    0.00000000
     atom   41 type  2   force =    -0.00048387   -0.00456972    0.00000000
     atom   42 type  2   force =     0.00309287    0.00013249    0.00000000
     atom   43 type  2   force =     0.00709747   -0.00634087    0.00000000
     atom   44 type  2   force =    -0.00759780   -0.01350003    0.00000000
     atom   45 type  2   force =    -0.01552891   -0.00225993    0.00000000
     atom   46 type  2   force =    -0.01197100    0.00380041    0.00000000
     atom   47 type  2   force =    -0.00556213    0.00286816    0.00000000
     atom   48 type  2   force =     0.00293486    0.00067131    0.00000000
     atom   49 type  2   force =     0.01614473    0.01411856    0.00000000
     atom   50 type  2   force =     0.02540222   -0.04295062    0.00000000
     atom   51 type  2   force =    -0.02548546    0.00635653    0.00000000
     atom   52 type  2   force =    -0.01605995    0.00819827    0.00000000
     atom   53 type  2   force =    -0.00832091    0.00923650    0.00000000
     atom   54 type  2   force =     0.00049735    0.01249145    0.00000000
     atom   55 type  2   force =    -0.00114896    0.02173703    0.00000000
     atom   56 type  2   force =     0.01703866    0.10459274    0.00000000
     atom   57 type  2   force =    -0.01731436    0.02115667    0.00000000
     atom   58 type  2   force =    -0.00625472    0.01213429    0.00000000
     atom   59 type  2   force =    -0.00403323    0.01300983    0.00000000
     atom   60 type  2   force =    -0.01016336    0.01271411    0.00000000
     atom   61 type  2   force =    -0.02888366    0.01592175    0.00000000
     atom   62 type  2   force =    -0.08204705   -0.06739042    0.00000000
     atom   63 type  2   force =     0.05139832    0.00063960    0.00000000
     atom   64 type  2   force =     0.00775172    0.01461791    0.00000000
     atom   65 type  2   force =    -0.00233759    0.00968002    0.00000000
     atom   66 type  2   force =    -0.00887875    0.00393138    0.00000000
     atom   67 type  2   force =    -0.01649389    0.00269357    0.00000000
     atom   68 type  2   force =    -0.02044558   -0.01001382    0.00000000
     atom   69 type  2   force =    -0.00465775   -0.02072997    0.00000000
     atom   70 type  2   force =     0.00909442   -0.00379463    0.00000000
     atom   71 type  2   force =     0.00047870    0.00408921    0.00000000

     Total force =     0.291902     Total SCF correction =     0.125112
     SCF correction compared to forces is large: reduce conv_thr to get better values

     BFGS Geometry Optimization

     number of scf cycles    =   1
     number of bfgs steps    =   0

     energy   new            =    -920.4178986177 Ry

     new trust radius        =       0.1076642074 bohr
     new conv_thr            =       0.0000010000 Ry


ATOMIC_POSITIONS (crystal)
B        0.112480020   0.055670735   0.000000000
B        0.112716346   0.221288273   0.000000000
B        0.110128005   0.387464793   0.000000000
B        0.107715178   0.554055009   0.000000000
B        0.107284899   0.720722980   0.000000000
B        0.108803536   0.887401185   0.000000000
B        0.279000566   0.057976418   0.000000000
B        0.285596618   0.229175523   0.000000000
B        0.277643101   0.390323991   0.000000000
B        0.273944934   0.555340815   0.000000000
B        0.274342582   0.721797344   0.000000000
B        0.275490638   0.888956915   0.000000000
B        0.443747449   0.055894106   0.000000000
B        0.446625853   0.228305192   0.000000000
B        0.459892448   0.411542990   0.000000000
B        0.438865660   0.557247132   0.000000000
B        0.440867233   0.722274768   0.000000000
B        0.442078222   0.888456069   0.000000000
B        0.610512387   0.052200627   0.000000000
B        0.614857557   0.217235785   0.000000000
N        0.615945048   0.380273485   0.000000000
B        0.584602207   0.536262818   0.000000000
B        0.605790783   0.718491450   0.000000000
B        0.608770973   0.886119270   0.000000000
B        0.777336929   0.051025867   0.000000000
B        0.779386852   0.216792923   0.000000000
B        0.778951169   0.381316979   0.000000000
B        0.767887587   0.549575730   0.000000000
B        0.766991631   0.710574783   0.000000000
B        0.774851212   0.883416881   0.000000000
B        0.944096604   0.052062662   0.000000000
B        0.945218047   0.218911111   0.000000000
B        0.943969740   0.385643800   0.000000000
B        0.940330951   0.552434124   0.000000000
B        0.938235554   0.717185375   0.000000000
B        0.940486931   0.883692492   0.000000000
N        0.055605736   0.109479390   0.000000000
N        0.055409433   0.275844938   0.000000000
N        0.053275215   0.442484964   0.000000000
N        0.050560279   0.608735900   0.000000000
N        0.050682309   0.774800153   0.000000000
N        0.053652310   0.942602492   0.000000000
N        0.225997197   0.114842683   0.000000000
N        0.223470365   0.278180785   0.000000000
N        0.219384432   0.444062389   0.000000000
N        0.217758465   0.610779171   0.000000000
N        0.218629383   0.777581290   0.000000000
N        0.221346376   0.945484458   0.000000000
N        0.392701626   0.116142413   0.000000000
N        0.400984060   0.289383351   0.000000000
N        0.385734402   0.447533340   0.000000000
N        0.383530523   0.612619491   0.000000000
N        0.385383595   0.778420487   0.000000000
N        0.387489857   0.945648069   0.000000000
N        0.555867146   0.109600920   0.000000000
N        0.565531124   0.281678486   0.000000000
N        0.548630159   0.610464881   0.000000000
N        0.552113069   0.776783890   0.000000000
N        0.553663328   0.942920599   0.000000000
N        0.721706814   0.107365379   0.000000000
N        0.723110282   0.272992225   0.000000000
N        0.714536871   0.430674360   0.000000000
N        0.706854123   0.595252137   0.000000000
N        0.717937704   0.772687688   0.000000000
N        0.720423779   0.940826851   0.000000000
N        0.888328105   0.107888820   0.000000000
N        0.888815011   0.274478758   0.000000000
N        0.886552602   0.440294461   0.000000000
N        0.880034360   0.603458856   0.000000000
N        0.881338629   0.770166353   0.000000000
N        0.886615845   0.940522838   0.000000000



     Writing output data file BN.save
     Check: negative starting charge=(component1):   -0.004188
     NEW-OLD atomic charge density approx. for the potential
     Check: negative starting charge=(component1):   -0.004190

     negative rho (up, down):  5.495E-04 4.350E-04

     total cpu time spent up to now is      259.5 secs

     per-process dynamical memory:   161.5 Mb

     Self-consistent Calculation

     iteration #  1     ecut=    55.00 Ry     beta=0.70
     Davidson diagonalization with overlap
     ethr =  1.00E-06,  avg # of iterations = 14.0

     negative rho (up, down):  8.636E-05 1.220E-04

     total cpu time spent up to now is      270.1 secs

     total energy              =    -920.40407653 Ry
     Harris-Foulkes estimate   =    -920.47294551 Ry
     estimated scf accuracy    <       0.08892451 Ry

     total magnetization       =     1.00 Bohr mag/cell
     absolute magnetization    =     1.22 Bohr mag/cell

     iteration #  2     ecut=    55.00 Ry     beta=0.70
     Davidson diagonalization with overlap
     ethr =  3.12E-05,  avg # of iterations =  5.0

     negative rho (up, down):  3.724E-05 5.580E-05

     total cpu time spent up to now is      275.2 secs

     total energy              =    -920.43808216 Ry
     Harris-Foulkes estimate   =    -920.46679644 Ry
     estimated scf accuracy    <       0.05562984 Ry

     total magnetization       =     1.00 Bohr mag/cell
     absolute magnetization    =     1.22 Bohr mag/cell

     iteration #  3     ecut=    55.00 Ry     beta=0.70
     Davidson diagonalization with overlap
     ethr =  1.95E-05,  avg # of iterations =  4.0

     negative rho (up, down):  1.702E-05 2.711E-05

     total cpu time spent up to now is      279.4 secs

     total energy              =    -920.44468510 Ry
     Harris-Foulkes estimate   =    -920.44780361 Ry
     estimated scf accuracy    <       0.00645736 Ry

     total magnetization       =     1.00 Bohr mag/cell
     absolute magnetization    =     1.20 Bohr mag/cell

     iteration #  4     ecut=    55.00 Ry     beta=0.70
     Davidson diagonalization with overlap
     ethr =  2.27E-06,  avg # of iterations =  6.5

     negative rho (up, down):  3.003E-06 5.729E-06

     total cpu time spent up to now is      285.0 secs

     total energy              =    -920.44571323 Ry
     Harris-Foulkes estimate   =    -920.44609231 Ry
     estimated scf accuracy    <       0.00087987 Ry

     total magnetization       =     1.00 Bohr mag/cell
     absolute magnetization    =     1.20 Bohr mag/cell

     iteration #  5     ecut=    55.00 Ry     beta=0.70
     Davidson diagonalization with overlap
     ethr =  3.09E-07,  avg # of iterations =  3.5

     total cpu time spent up to now is      289.0 secs

     total energy              =    -920.44588066 Ry
     Harris-Foulkes estimate   =    -920.44593151 Ry
     estimated scf accuracy    <       0.00014971 Ry

     total magnetization       =     1.00 Bohr mag/cell
     absolute magnetization    =     1.20 Bohr mag/cell

     iteration #  6     ecut=    55.00 Ry     beta=0.70
     Davidson diagonalization with overlap
     ethr =  5.25E-08,  avg # of iterations =  4.5

     total cpu time spent up to now is      293.8 secs

     total energy              =    -920.44592163 Ry
     Harris-Foulkes estimate   =    -920.44593444 Ry
     estimated scf accuracy    <       0.00003302 Ry

     total magnetization       =     1.00 Bohr mag/cell
     absolute magnetization    =     1.20 Bohr mag/cell

     iteration #  7     ecut=    55.00 Ry     beta=0.70
     Davidson diagonalization with overlap
     ethr =  1.16E-08,  avg # of iterations =  4.0

     total cpu time spent up to now is      298.3 secs

     total energy              =    -920.44593080 Ry
     Harris-Foulkes estimate   =    -920.44593117 Ry
     estimated scf accuracy    <       0.00000324 Ry

     total magnetization       =     1.00 Bohr mag/cell
     absolute magnetization    =     1.19 Bohr mag/cell

     iteration #  8     ecut=    55.00 Ry     beta=0.70
     Davidson diagonalization with overlap
     ethr =  1.14E-09,  avg # of iterations =  4.0
 
     Magnetic moment per site:
     atom:    1    charge:    0.8205    magn:    0.0007    constr:    0.0000
     atom:    2    charge:    0.8362    magn:    0.0016    constr:    0.0000
     atom:    3    charge:    0.8455    magn:    0.0001    constr:    0.0000
     atom:    4    charge:    0.8422    magn:    0.0004    constr:    0.0000
     atom:    5    charge:    0.8383    magn:    0.0004    constr:    0.0000
     atom:    6    charge:    0.8319    magn:    0.0019    constr:    0.0000
     atom:    7    charge:    0.8290    magn:    0.0005    constr:    0.0000
     atom:    8    charge:    0.8008    magn:    0.0031    constr:    0.0000
     atom:    9    charge:    0.8507    magn:    0.0069    constr:    0.0000
     atom:   10    charge:    0.8497    magn:    0.0044    constr:    0.0000
     atom:   11    charge:    0.8428    magn:    0.0019    constr:    0.0000
     atom:   12    charge:    0.8397    magn:    0.0004    constr:    0.0000
     atom:   13    charge:    0.8391    magn:    0.0001    constr:    0.0000
     atom:   14    charge:    0.8170    magn:    0.0036    constr:    0.0000
     atom:   15    charge:    0.7399    magn:    0.0671    constr:    0.0000
     atom:   16    charge:    0.8695    magn:    0.0173    constr:    0.0000
     atom:   17    charge:    0.8495    magn:    0.0044    constr:    0.0000
     atom:   18    charge:    0.8427    magn:    0.0004    constr:    0.0000
     atom:   19    charge:    0.8475    magn:    0.0004    constr:    0.0000
     atom:   20    charge:    0.8694    magn:    0.0026    constr:    0.0000
     atom:   21    charge:    2.4865    magn:    0.0314    constr:    0.0000
     atom:   22    charge:    0.7396    magn:    0.0672    constr:    0.0000
     atom:   23    charge:    0.8507    magn:    0.0069    constr:    0.0000
     atom:   24    charge:    0.8461    magn:    0.0001    constr:    0.0000
     atom:   25    charge:    0.8451    magn:    0.0001    constr:    0.0000
     atom:   26    charge:    0.8565    magn:    0.0008    constr:    0.0000
     atom:   27    charge:    0.8702    magn:    0.0026    constr:    0.0000
     atom:   28    charge:    0.8167    magn:    0.0036    constr:    0.0000
     atom:   29    charge:    0.8011    magn:    0.0031    constr:    0.0000
     atom:   30    charge:    0.8349    magn:    0.0016    constr:    0.0000
     atom:   31    charge:    0.8361    magn:    0.0032    constr:    0.0000
     atom:   32    charge:    0.8449    magn:    0.0001    constr:    0.0000
     atom:   33    charge:    0.8481    magn:    0.0004    constr:    0.0000
     atom:   34    charge:    0.8376    magn:    0.0001    constr:    0.0000
     atom:   35    charge:    0.8289    magn:    0.0005    constr:    0.0000
     atom:   36    charge:    0.8200    magn:    0.0007    constr:    0.0000
     atom:   37    charge:    2.5791    magn:   -0.0011    constr:    0.0000
     atom:   38    charge:    2.5831    magn:    0.0021    constr:    0.0000
     atom:   39    charge:    2.5872    magn:   -0.0000    constr:    0.0000
     atom:   40    charge:    2.5748    magn:   -0.0005    constr:    0.0000
     atom:   41    charge:    2.5683    magn:   -0.0006    constr:    0.0000
     atom:   42    charge:    2.5614    magn:   -0.0009    constr:    0.0000
     atom:   43    charge:    2.5594    magn:   -0.0012    constr:    0.0000
     atom:   44    charge:    2.5796    magn:    0.0018    constr:    0.0000
     atom:   45    charge:    2.5828    magn:   -0.0022    constr:    0.0000
     atom:   46    charge:    2.5841    magn:   -0.0011    constr:    0.0000
     atom:   47    charge:    2.5767    magn:   -0.0004    constr:    0.0000
     atom:   48    charge:    2.5680    magn:   -0.0006    constr:    0.0000
     atom:   49    charge:    2.5601    magn:   -0.0018    constr:    0.0000
     atom:   50    charge:    2.5202    magn:   -0.0022    constr:    0.0000
     atom:   51    charge:    2.5942    magn:   -0.0083    constr:    0.0000
     atom:   52    charge:    2.5954    magn:   -0.0046    constr:    0.0000
     atom:   53    charge:    2.5762    magn:   -0.0011    constr:    0.0000
     atom:   54    charge:    2.5818    magn:   -0.0005    constr:    0.0000
     atom:   55    charge:    2.5868    magn:    0.0005    constr:    0.0000
     atom:   56    charge:    2.5351    magn:    0.0003    constr:    0.0000
     atom:   57    charge:    2.5918    magn:   -0.0083    constr:    0.0000
     atom:   58    charge:    2.5868    magn:   -0.0022    constr:    0.0000
     atom:   59    charge:    2.5866    magn:   -0.0000    constr:    0.0000
     atom:   60    charge:    2.5848    magn:    0.0002    constr:    0.0000
     atom:   61    charge:    2.5980    magn:    0.0017    constr:    0.0000
     atom:   62    charge:    2.5351    magn:    0.0002    constr:    0.0000
     atom:   63    charge:    2.5214    magn:   -0.0022    constr:    0.0000
     atom:   64    charge:    2.5751    magn:    0.0018    constr:    0.0000
     atom:   65    charge:    2.5771    magn:    0.0021    constr:    0.0000
     atom:   66    charge:    2.5796    magn:   -0.0005    constr:    0.0000
     atom:   67    charge:    2.5775    magn:    0.0002    constr:    0.0000
     atom:   68    charge:    2.5898    magn:    0.0005    constr:    0.0000
     atom:   69    charge:    2.5604    magn:   -0.0018    constr:    0.0000
     atom:   70    charge:    2.5513    magn:   -0.0012    constr:    0.0000
     atom:   71    charge:    2.5754    magn:   -0.0011    constr:    0.0000

     total cpu time spent up to now is      302.9 secs

     End of self-consistent calculation

 ------ SPIN UP ------------


          k = 0.0000 0.0000 0.0000 (182351 PWs)   bands (ev):

   -26.4732 -22.0225 -21.8315 -21.4176 -21.2938 -21.2220 -21.1076 -20.9658
   -20.6628 -20.4742 -20.3450 -20.1846 -20.1597 -20.1183 -19.9961 -19.8565
   -19.7425 -19.7181 -19.5402 -19.4442 -19.1895 -19.0096 -18.9685 -18.9125
   -18.8688 -18.8172 -18.7462 -18.6844 -18.6742 -18.6139 -18.5974 -18.4623
   -18.4615 -18.1947 -17.9231 -16.0113 -13.8347 -13.4644 -13.0862 -12.8766
   -12.7051 -12.4676 -12.3340 -12.2848 -12.2797 -12.1738 -12.1469 -12.0623
   -12.0500 -12.0338 -11.9042 -11.8899 -11.6152 -11.3948 -11.3387 -11.2625
   -11.1069 -11.0250 -10.8818 -10.8626 -10.8123 -10.4964 -10.3106 -10.0187
    -9.9681  -9.7944  -9.7937  -9.6644  -9.6417  -9.5915  -9.5251  -9.4912
    -9.4173  -9.3682  -9.3427  -9.3138  -9.2848  -9.2839  -8.9824  -8.8902
    -8.8729  -8.8038  -8.7916  -8.6145  -8.5044  -8.4731  -8.4707  -8.3933
    -8.2768  -8.2036  -8.1179  -8.1042  -8.0307  -8.0035  -7.9558  -7.8943
    -7.8704  -7.8465  -7.6938  -7.6678  -7.6130  -7.5416  -7.5039  -7.4777
    -7.4647  -7.3493  -7.2690  -7.2214  -7.1869  -7.1849  -6.9447  -6.8730
    -6.7995  -6.7907  -6.7516  -6.6834  -6.6421  -6.5682  -6.3740  -6.3559
    -6.2488  -6.1529  -5.8847  -5.8602  -5.6724  -5.6556  -5.4896  -5.4263
    -5.3830  -5.3127  -5.2555  -5.2375  -5.1978  -5.1121  -5.0598  -5.0111
    -4.9894  -4.9073  -4.7298  -4.3008  -4.0894  -3.4619  -2.2126  -0.3003
     0.3690   0.5338   0.5357   0.6119   0.6314   0.8921   0.9777

 ------ SPIN DOWN ----------


          k = 0.0000 0.0000 0.0000 (182351 PWs)   bands (ev):

   -26.4325 -22.0164 -21.8285 -21.4149 -21.2921 -21.2193 -21.1041 -20.9626
   -20.6531 -20.4716 -20.3429 -20.1817 -20.1552 -20.1168 -19.9944 -19.8535
   -19.7370 -19.7132 -19.5323 -19.4388 -19.1858 -19.0007 -18.9678 -18.9117
   -18.8691 -18.8169 -18.7453 -18.6806 -18.6721 -18.6137 -18.5926 -18.4593
   -18.4579 -18.1928 -17.9208 -15.9842 -13.8218 -13.4578 -13.0830 -12.8678
   -12.6948 -12.4637 -12.3290 -12.2806 -12.2743 -12.1715 -12.1313 -12.0552
   -12.0347 -12.0302 -11.8983 -11.8770 -11.6029 -11.3880 -11.3104 -11.2533
   -11.0910 -11.0192 -10.8538 -10.7982 -10.7806 -10.4791 -10.2804 -10.0091
    -9.9661  -9.7915  -9.7907  -9.6592  -9.6346  -9.5856  -9.5168  -9.4821
    -9.4111  -9.3607  -9.3342  -9.2966  -9.2717  -9.2712  -8.9663  -8.8781
    -8.8645  -8.7927  -8.7741  -8.6033  -8.4857  -8.4654  -8.4433  -8.3805
    -8.2691  -8.2013  -8.1145  -8.1020  -8.0290  -7.9991  -7.9269  -7.8890
    -7.8452  -7.8186  -7.6919  -7.6617  -7.6004  -7.5390  -7.5001  -7.4745
    -7.4508  -7.3365  -7.2592  -7.2067  -7.1787  -7.1586  -6.9297  -6.8624
    -6.7869  -6.7841  -6.7382  -6.6811  -6.6163  -6.5291  -6.3737  -6.2906
    -6.2440  -6.1444  -5.8485  -5.8476  -5.6693  -5.5884  -5.4829  -5.3948
    -5.3743  -5.3091  -5.2533  -5.2307  -5.1931  -5.1043  -5.0438  -4.9875
    -4.9772  -4.8966  -4.6736  -4.2733  -4.0711  -3.2329  -2.0554   0.4013
     0.4697   0.5579   0.5639   0.6563   0.6621   0.9606   1.0049

     highest occupied, lowest unoccupied level (ev):    -3.2329   -2.2126

!    total energy              =    -920.44593201 Ry
     Harris-Foulkes estimate   =    -920.44593190 Ry
     estimated scf accuracy    <       0.00000052 Ry

     The total energy is the sum of the following terms:

     one-electron contribution =   -7783.56011141 Ry
     hartree contribution      =    3943.79980248 Ry
     xc contribution           =    -262.28492251 Ry
     ewald contribution        =    3181.59929943 Ry

     total magnetization       =     1.00 Bohr mag/cell
     absolute magnetization    =     1.19 Bohr mag/cell

     convergence has been achieved in   8 iterations

     Forces acting on atoms (cartesian axes, Ry/au):

     atom    1 type  1   force =     0.00069054   -0.00050712    0.00000000
     atom    2 type  1   force =    -0.00636860   -0.00302726    0.00000000
     atom    3 type  1   force =    -0.01231031   -0.00442831    0.00000000
     atom    4 type  1   force =    -0.01057065   -0.00262297    0.00000000
     atom    5 type  1   force =    -0.00299894   -0.00332739    0.00000000
     atom    6 type  1   force =     0.00134161   -0.00137606    0.00000000
     atom    7 type  1   force =     0.01109352    0.00082747    0.00000000
     atom    8 type  1   force =     0.00081260   -0.00521959    0.00000000
     atom    9 type  1   force =    -0.01578369   -0.00930927    0.00000000
     atom   10 type  1   force =    -0.01336500   -0.00052662    0.00000000
     atom   11 type  1   force =    -0.00749827    0.00483792    0.00000000
     atom   12 type  1   force =     0.00169871    0.00352517    0.00000000
     atom   13 type  1   force =     0.00525708    0.01670331    0.00000000
     atom   14 type  1   force =     0.03262757    0.00077231    0.00000000
     atom   15 type  1   force =     0.02086230    0.02832205    0.00000000
     atom   16 type  1   force =    -0.01829041    0.01147696    0.00000000
     atom   17 type  1   force =    -0.00673110    0.01059107    0.00000000
     atom   18 type  1   force =    -0.00215075    0.01057890    0.00000000
     atom   19 type  1   force =    -0.00575237    0.01334691    0.00000000
     atom   20 type  1   force =    -0.02294423    0.03040863    0.00000000
     atom   21 type  2   force =    -0.02384201    0.01465239    0.00000000
     atom   22 type  1   force =    -0.01390969   -0.03156204    0.00000000
     atom   23 type  1   force =     0.00063708    0.01928269    0.00000000
     atom   24 type  1   force =    -0.00248538    0.01198512    0.00000000
     atom   25 type  1   force =    -0.00774206    0.00746582    0.00000000
     atom   26 type  1   force =    -0.01898951    0.01066141    0.00000000
     atom   27 type  1   force =    -0.03834410    0.00365902    0.00000000
     atom   28 type  1   force =     0.01607746   -0.02866360    0.00000000
     atom   29 type  1   force =     0.00475505    0.00242591    0.00000000
     atom   30 type  1   force =    -0.00073695    0.00725046    0.00000000
     atom   31 type  1   force =    -0.00510752    0.00257646    0.00000000
     atom   32 type  1   force =    -0.01073162    0.00229421    0.00000000
     atom   33 type  1   force =    -0.01434304   -0.00121694    0.00000000
     atom   34 type  1   force =    -0.01289343   -0.01275099    0.00000000
     atom   35 type  1   force =     0.00428324   -0.01069090    0.00000000
     atom   36 type  1   force =     0.00124840    0.00002027    0.00000000
     atom   37 type  2   force =     0.00292678    0.00121249    0.00000000
     atom   38 type  2   force =     0.00981940    0.00200694    0.00000000
     atom   39 type  2   force =     0.01280592    0.00368413    0.00000000
     atom   40 type  2   force =     0.00971841    0.00608160    0.00000000
     atom   41 type  2   force =    -0.00068025    0.00437461    0.00000000
     atom   42 type  2   force =    -0.00135961    0.00085644    0.00000000
     atom   43 type  2   force =    -0.00716776    0.00143989    0.00000000
     atom   44 type  2   force =     0.00992558    0.01191955    0.00000000
     atom   45 type  2   force =     0.01280406    0.00677548    0.00000000
     atom   46 type  2   force =     0.00965905   -0.00033197    0.00000000
     atom   47 type  2   force =     0.00383480   -0.00217360    0.00000000
     atom   48 type  2   force =    -0.00371241   -0.00172374    0.00000000
     atom   49 type  2   force =    -0.01334833   -0.00908791    0.00000000
     atom   50 type  2   force =    -0.04258409    0.01595508    0.00000000
     atom   51 type  2   force =     0.01570447    0.00763221    0.00000000
     atom   52 type  2   force =     0.01074053   -0.00673692    0.00000000
     atom   53 type  2   force =     0.00526695   -0.00805158    0.00000000
     atom   54 type  2   force =    -0.00099601   -0.01171081    0.00000000
     atom   55 type  2   force =     0.00277212   -0.02504856    0.00000000
     atom   56 type  2   force =     0.00202121   -0.08258212    0.00000000
     atom   57 type  2   force =     0.00130315   -0.01882536    0.00000000
     atom   58 type  2   force =     0.00017220   -0.01369988    0.00000000
     atom   59 type  2   force =     0.00350425   -0.01319884    0.00000000
     atom   60 type  2   force =     0.00999795   -0.01243421    0.00000000
     atom   61 type  2   force =     0.04065737   -0.02269067    0.00000000
     atom   62 type  2   force =     0.07271279    0.04010162    0.00000000
     atom   63 type  2   force =    -0.03569021    0.02878898    0.00000000
     atom   64 type  2   force =    -0.00504365   -0.01432756    0.00000000
     atom   65 type  2   force =     0.00288927   -0.00946209    0.00000000
     atom   66 type  2   force =     0.00806280   -0.00459954    0.00000000
     atom   67 type  2   force =     0.01593246   -0.00238265    0.00000000
     atom   68 type  2   force =     0.02298943    0.01037381    0.00000000
     atom   69 type  2   force =     0.00093642    0.01629292    0.00000000
     atom   70 type  2   force =    -0.00492256    0.00611963    0.00000000
     atom   71 type  2   force =     0.00085198   -0.00298276    0.00000000

     Total force =     0.195060     Total SCF correction =     0.001645

     number of scf cycles    =   2
     number of bfgs steps    =   1

[...]
     atom:   10    charge:    0.8534    magn:    0.0042    constr:    0.0000
     atom:   11    charge:    0.8444    magn:    0.0015    constr:    0.0000
     atom:   12    charge:    0.8400    magn:    0.0003    constr:    0.0000
     atom:   13    charge:    0.8373    magn:    0.0002    constr:    0.0000
     atom:   14    charge:    0.8107    magn:    0.0044    constr:    0.0000
     atom:   15    charge:    0.7396    magn:    0.0690    constr:    0.0000
     atom:   16    charge:    0.8784    magn:    0.0176    constr:    0.0000
     atom:   17    charge:    0.8528    magn:    0.0042    constr:    0.0000
     atom:   18    charge:    0.8438    magn:    0.0005    constr:    0.0000
     atom:   19    charge:    0.8479    magn:    0.0004    constr:    0.0000
     atom:   20    charge:    0.8703    magn:    0.0023    constr:    0.0000
     atom:   21    charge:    2.4344    magn:    0.0261    constr:    0.0000
     atom:   22    charge:    0.7397    magn:    0.0689    constr:    0.0000
     atom:   23    charge:    0.8494    magn:    0.0065    constr:    0.0000
     atom:   24    charge:    0.8462    magn:    0.0001    constr:    0.0000
     atom:   25    charge:    0.8459    magn:    0.0000    constr:    0.0000
     atom:   26    charge:    0.8601    magn:    0.0006    constr:    0.0000
     atom:   27    charge:    0.8707    magn:    0.0023    constr:    0.0000
     atom:   28    charge:    0.8105    magn:    0.0043    constr:    0.0000
     atom:   29    charge:    0.8018    magn:    0.0025    constr:    0.0000
     atom:   30    charge:    0.8345    magn:    0.0013    constr:    0.0000
     atom:   31    charge:    0.8365    magn:    0.0023    constr:    0.0000
     atom:   32    charge:    0.8460    magn:    0.0000    constr:    0.0000
     atom:   33    charge:    0.8484    magn:    0.0004    constr:    0.0000
     atom:   34    charge:    0.8358    magn:    0.0002    constr:    0.0000
     atom:   35    charge:    0.8298    magn:    0.0005    constr:    0.0000
     atom:   36    charge:    0.8215    magn:    0.0005    constr:    0.0000
     atom:   37    charge:    2.5788    magn:   -0.0008    constr:    0.0000
     atom:   38    charge:    2.5837    magn:    0.0020    constr:    0.0000
     atom:   39    charge:    2.5880    magn:   -0.0000    constr:    0.0000
     atom:   40    charge:    2.5737    magn:   -0.0004    constr:    0.0000
     atom:   41    charge:    2.5688    magn:   -0.0005    constr:    0.0000
     atom:   42    charge:    2.5617    magn:   -0.0007    constr:    0.0000
     atom:   43    charge:    2.5583    magn:   -0.0010    constr:    0.0000
     atom:   44    charge:    2.5800    magn:    0.0021    constr:    0.0000
     atom:   45    charge:    2.5825    magn:   -0.0021    constr:    0.0000
     atom:   46    charge:    2.5842    magn:   -0.0009    constr:    0.0000
     atom:   47    charge:    2.5774    magn:   -0.0003    constr:    0.0000
     atom:   48    charge:    2.5684    magn:   -0.0005    constr:    0.0000
     atom:   49    charge:    2.5602    magn:   -0.0017    constr:    0.0000
     atom:   50    charge:    2.5139    magn:   -0.0023    constr:    0.0000
     atom:   51    charge:    2.5878    magn:   -0.0074    constr:    0.0000
     atom:   52    charge:    2.5961    magn:   -0.0042    constr:    0.0000
     atom:   53    charge:    2.5764    magn:   -0.0009    constr:    0.0000
     atom:   54    charge:    2.5808    magn:   -0.0004    constr:    0.0000
     atom:   55    charge:    2.5875    magn:    0.0006    constr:    0.0000
     atom:   56    charge:    2.5435    magn:    0.0000    constr:    0.0000
     atom:   57    charge:    2.5858    magn:   -0.0073    constr:    0.0000
     atom:   58    charge:    2.5864    magn:   -0.0021    constr:    0.0000
     atom:   59    charge:    2.5877    magn:   -0.0000    constr:    0.0000
     atom:   60    charge:    2.5856    magn:    0.0002    constr:    0.0000
     atom:   61    charge:    2.5982    magn:    0.0012    constr:    0.0000
     atom:   62    charge:    2.5432    magn:   -0.0000    constr:    0.0000
     atom:   63    charge:    2.5155    magn:   -0.0022    constr:    0.0000
     atom:   64    charge:    2.5760    magn:    0.0020    constr:    0.0000
     atom:   65    charge:    2.5778    magn:    0.0020    constr:    0.0000
     atom:   66    charge:    2.5799    magn:   -0.0003    constr:    0.0000
     atom:   67    charge:    2.5782    magn:    0.0002    constr:    0.0000
     atom:   68    charge:    2.5904    magn:    0.0006    constr:    0.0000
     atom:   69    charge:    2.5608    magn:   -0.0017    constr:    0.0000
     atom:   70    charge:    2.5504    magn:   -0.0010    constr:    0.0000
     atom:   71    charge:    2.5752    magn:   -0.0008    constr:    0.0000

     total cpu time spent up to now is      627.0 secs

     End of self-consistent calculation

 ------ SPIN UP ------------


          k = 0.0000 0.0000 0.0000 (182351 PWs)   bands (ev):

   -26.2846 -22.1226 -21.8751 -21.4353 -21.3053 -21.2230 -21.0918 -20.9503
   -20.6344 -20.5122 -20.3540 -20.1717 -20.1592 -20.1132 -19.9939 -19.8463
   -19.7146 -19.6814 -19.5265 -19.4116 -19.2029 -19.0022 -18.9679 -18.9048
   -18.8747 -18.8130 -18.7296 -18.6394 -18.6376 -18.5885 -18.5321 -18.4073
   -18.3692 -18.1653 -17.7767 -16.2435 -13.8993 -13.5934 -13.1294 -12.8848
   -12.7091 -12.4860 -12.3298 -12.3060 -12.2798 -12.1593 -12.1334 -12.0382
   -12.0355 -12.0179 -11.8742 -11.8584 -11.6083 -11.4295 -11.3508 -11.2307
   -11.0764 -11.0203 -10.8612 -10.8594 -10.8138 -10.4869 -10.2971 -10.0287
   -10.0095  -9.8299  -9.8099  -9.6679  -9.6455  -9.5754  -9.5457  -9.4614
    -9.4037  -9.3672  -9.3067  -9.2920  -9.2917  -9.2536  -8.9599  -8.9230
    -8.8697  -8.8239  -8.7816  -8.6054  -8.4892  -8.4492  -8.4480  -8.3547
    -8.2838  -8.1968  -8.1157  -8.0905  -8.0550  -8.0039  -7.9759  -7.9005
    -7.8376  -7.7877  -7.6980  -7.6849  -7.6467  -7.5256  -7.4878  -7.4809
    -7.4147  -7.3481  -7.2058  -7.2044  -7.1809  -7.1367  -6.9343  -6.8968
    -6.7920  -6.7856  -6.7375  -6.6172  -6.6142  -6.5234  -6.3465  -6.3387
    -6.1597  -6.1342  -6.0715  -5.9081  -5.6278  -5.5951  -5.5243  -5.4604
    -5.4005  -5.3047  -5.2504  -5.2411  -5.1815  -5.0829  -5.0327  -4.9637
    -4.9626  -4.8507  -4.6578  -4.2817  -4.0099  -3.7741  -2.5135  -0.4134
     0.3359   0.5227   0.5240   0.6033   0.6078   0.8886   0.9982

 ------ SPIN DOWN ----------


          k = 0.0000 0.0000 0.0000 (182351 PWs)   bands (ev):

   -26.2509 -22.1176 -21.8723 -21.4331 -21.3038 -21.2207 -21.0886 -20.9475
   -20.6252 -20.5100 -20.3519 -20.1692 -20.1547 -20.1117 -19.9923 -19.8433
   -19.7087 -19.6771 -19.5185 -19.4065 -19.1989 -19.0014 -18.9584 -18.9038
   -18.8745 -18.8126 -18.7280 -18.6372 -18.6350 -18.5882 -18.5258 -18.4018
   -18.3654 -18.1626 -17.7721 -16.2197 -13.8886 -13.5876 -13.1268 -12.8775
   -12.6993 -12.4823 -12.3261 -12.3018 -12.2744 -12.1571 -12.1152 -12.0339
   -12.0235 -12.0142 -11.8682 -11.8459 -11.5956 -11.4224 -11.3190 -11.2238
   -11.0619 -11.0149 -10.8308 -10.7998 -10.7931 -10.4699 -10.2632 -10.0206
   -10.0072  -9.8275  -9.8045  -9.6596  -9.6424  -9.5682  -9.5439  -9.4470
    -9.3978  -9.3562  -9.3019  -9.2799  -9.2777  -9.2349  -8.9435  -8.9143
    -8.8620  -8.8143  -8.7579  -8.5956  -8.4727  -8.4426  -8.4216  -8.3419
    -8.2745  -8.1945  -8.1112  -8.0860  -8.0533  -8.0023  -7.9435  -7.8956
    -7.7879  -7.7865  -7.6874  -7.6829  -7.6420  -7.5223  -7.4785  -7.4753
    -7.4105  -7.3358  -7.1943  -7.1930  -7.1544  -7.1273  -6.9211  -6.8878
    -6.7851  -6.7714  -6.7243  -6.6126  -6.5906  -6.4868  -6.3460  -6.2693
    -6.1539  -6.1243  -6.0343  -5.8969  -5.5912  -5.5682  -5.5047  -5.4321
    -5.3923  -5.3010  -5.2467  -5.2356  -5.1766  -5.0749  -5.0153  -4.9517
    -4.9379  -4.8372  -4.6044  -4.2500  -3.9832  -3.5422  -2.3807   0.3657
     0.4103   0.5428   0.5488   0.6399   0.6450   0.9480   1.0229

     highest occupied, lowest unoccupied level (ev):    -3.5422   -2.5135

!    total energy              =    -920.45982387 Ry
     Harris-Foulkes estimate   =    -920.45982388 Ry
     estimated scf accuracy    <          7.3E-09 Ry

     The total energy is the sum of the following terms:

     one-electron contribution =   -7782.76045934 Ry
     hartree contribution      =    3943.42476065 Ry
     xc contribution           =    -262.23476055 Ry
     ewald contribution        =    3181.11063537 Ry

     total magnetization       =     1.00 Bohr mag/cell
     absolute magnetization    =     1.18 Bohr mag/cell

     convergence has been achieved in   6 iterations

     Forces acting on atoms (cartesian axes, Ry/au):

     atom    1 type  1   force =     0.00034021   -0.00032473    0.00000000
     atom    2 type  1   force =    -0.00010853   -0.00005409    0.00000000
     atom    3 type  1   force =    -0.00026412    0.00065504    0.00000000
     atom    4 type  1   force =     0.00025608    0.00052112    0.00000000
     atom    5 type  1   force =    -0.00017562   -0.00000482    0.00000000
     atom    6 type  1   force =    -0.00007178   -0.00004453    0.00000000
     atom    7 type  1   force =     0.00021471   -0.00064138    0.00000000
     atom    8 type  1   force =     0.00005125    0.00010234    0.00000000
     atom    9 type  1   force =     0.00078659    0.00035724    0.00000000
     atom   10 type  1   force =     0.00000540    0.00022349    0.00000000
     atom   11 type  1   force =    -0.00088788    0.00044008    0.00000000
     atom   12 type  1   force =    -0.00016849    0.00005805    0.00000000
     atom   13 type  1   force =     0.00061646   -0.00043134    0.00000000
     atom   14 type  1   force =    -0.00031302   -0.00027885    0.00000000
     atom   15 type  1   force =     0.00013218   -0.00057332    0.00000000
     atom   16 type  1   force =    -0.00004975    0.00009412    0.00000000
     atom   17 type  1   force =    -0.00017177   -0.00015539    0.00000000
     atom   18 type  1   force =    -0.00036766   -0.00057895    0.00000000
     atom   19 type  1   force =     0.00008973    0.00046689    0.00000000
     atom   20 type  1   force =     0.00007097    0.00016832    0.00000000
     atom   21 type  2   force =    -0.00010006    0.00024405    0.00000000
     atom   22 type  1   force =     0.00045661    0.00006379    0.00000000
     atom   23 type  1   force =     0.00008689   -0.00077229    0.00000000
     atom   24 type  1   force =    -0.00069011   -0.00003528    0.00000000
     atom   25 type  1   force =     0.00015202   -0.00001208    0.00000000
     atom   26 type  1   force =     0.00002006    0.00015676    0.00000000
     atom   27 type  1   force =    -0.00005939    0.00015421    0.00000000
     atom   28 type  1   force =     0.00015930    0.00034955    0.00000000
     atom   29 type  1   force =    -0.00014471   -0.00022474    0.00000000
     atom   30 type  1   force =    -0.00001556    0.00012794    0.00000000
     atom   31 type  1   force =     0.00045455   -0.00028730    0.00000000
     atom   32 type  1   force =     0.00023446   -0.00004670    0.00000000
     atom   33 type  1   force =    -0.00038643   -0.00018598    0.00000000
     atom   34 type  1   force =     0.00064693   -0.00029794    0.00000000
     atom   35 type  1   force =     0.00057301    0.00004740    0.00000000
     atom   36 type  1   force =     0.00042333   -0.00023358    0.00000000
     atom   37 type  2   force =    -0.00012504   -0.00021081    0.00000000
     atom   38 type  2   force =    -0.00016423   -0.00010827    0.00000000
     atom   39 type  2   force =    -0.00056690   -0.00025687    0.00000000
     atom   40 type  2   force =    -0.00009823   -0.00015600    0.00000000
     atom   41 type  2   force =    -0.00038771    0.00044685    0.00000000
     atom   42 type  2   force =    -0.00023539    0.00013988    0.00000000
     atom   43 type  2   force =     0.00018140   -0.00018761    0.00000000
     atom   44 type  2   force =    -0.00017096   -0.00002063    0.00000000
     atom   45 type  2   force =    -0.00011078   -0.00058667    0.00000000
     atom   46 type  2   force =     0.00007575   -0.00017917    0.00000000
     atom   47 type  2   force =    -0.00077775    0.00053366    0.00000000
     atom   48 type  2   force =    -0.00056519    0.00009210    0.00000000
     atom   49 type  2   force =     0.00029472    0.00011995    0.00000000
     atom   50 type  2   force =    -0.00003829    0.00086678    0.00000000
     atom   51 type  2   force =     0.00056359   -0.00003635    0.00000000
     atom   52 type  2   force =     0.00011881    0.00002949    0.00000000
     atom   53 type  2   force =     0.00018160    0.00009763    0.00000000
     atom   54 type  2   force =     0.00012003    0.00021675    0.00000000
     atom   55 type  2   force =     0.00022616    0.00060474    0.00000000
     atom   56 type  2   force =    -0.00007467    0.00000140    0.00000000
     atom   57 type  2   force =     0.00028150   -0.00036781    0.00000000
     atom   58 type  2   force =     0.00041002    0.00055281    0.00000000
     atom   59 type  2   force =    -0.00016024    0.00066398    0.00000000
     atom   60 type  2   force =     0.00039661    0.00009894    0.00000000
     atom   61 type  2   force =    -0.00004975   -0.00008968    0.00000000
     atom   62 type  2   force =    -0.00028484   -0.00005807    0.00000000
     atom   63 type  2   force =    -0.00082905   -0.00034383    0.00000000
     atom   64 type  2   force =    -0.00016543    0.00025560    0.00000000
     atom   65 type  2   force =    -0.00010403    0.00031283    0.00000000
     atom   66 type  2   force =     0.00045284   -0.00030009    0.00000000
     atom   67 type  2   force =     0.00015504   -0.00047358    0.00000000
     atom   68 type  2   force =    -0.00048679   -0.00054969    0.00000000
     atom   69 type  2   force =    -0.00004576   -0.00023186    0.00000000
     atom   70 type  2   force =     0.00012088   -0.00008376    0.00000000
     atom   71 type  2   force =     0.00006623    0.00016028    0.00000000

     Total force =     0.004066     Total SCF correction =     0.000219

     bfgs converged in  11 scf cycles and  10 bfgs steps
     (criteria: energy <  1.0E-04 Ry, force <  1.0E-03 Ry/Bohr)

     End of BFGS Geometry Optimization

     Final energy   =    -920.4598238715 Ry
Begin final coordinates

ATOMIC_POSITIONS (crystal)
B        0.112655595   0.055878657   0.000000000
B        0.113251413   0.221543200   0.000000000
B        0.110254736   0.387529698   0.000000000
B        0.107072960   0.554183237   0.000000000
B        0.106787289   0.720798289   0.000000000
B        0.108624334   0.887512119   0.000000000
B        0.279133754   0.058248013   0.000000000
B        0.286066302   0.229803754   0.000000000
B        0.277896149   0.390928548   0.000000000
B        0.273050771   0.555857297   0.000000000
B        0.273824850   0.722347243   0.000000000
B        0.275365404   0.889329734   0.000000000
B        0.444062303   0.056592604   0.000000000
B        0.447393170   0.228857676   0.000000000
B        0.462526116   0.414621772   0.000000000
B        0.437742685   0.558410748   0.000000000
B        0.440240862   0.723044963   0.000000000
B        0.442025447   0.889095837   0.000000000
B        0.610722791   0.051872572   0.000000000
B        0.615447529   0.216861126   0.000000000
N        0.616913039   0.379218055   0.000000000
B        0.581691337   0.533839275   0.000000000
B        0.605242976   0.718311235   0.000000000
B        0.608645182   0.885888607   0.000000000
B        0.777454129   0.050502359   0.000000000
B        0.779996021   0.216195862   0.000000000
B        0.779204509   0.380657683   0.000000000
B        0.767284630   0.548830608   0.000000000
B        0.766475020   0.710294769   0.000000000
B        0.774654169   0.882956286   0.000000000
B        0.944225785   0.051965927   0.000000000
B        0.945675068   0.218737672   0.000000000
B        0.944293439   0.385484486   0.000000000
B        0.939493929   0.552086649   0.000000000
B        0.937851724   0.717017610   0.000000000
B        0.940426652   0.883658362   0.000000000
N        0.055960145   0.109702152   0.000000000
N        0.056163616   0.275969669   0.000000000
N        0.053890726   0.442691247   0.000000000
N        0.050295740   0.608958244   0.000000000
N        0.050374994   0.775018977   0.000000000
N        0.053582136   0.942776515   0.000000000
N        0.226053601   0.115298167   0.000000000
N        0.224412979   0.279155027   0.000000000
N        0.219921190   0.444765781   0.000000000
N        0.217362245   0.611244923   0.000000000
N        0.218280508   0.777850881   0.000000000
N        0.221074458   0.945670171   0.000000000
N        0.392242117   0.116233448   0.000000000
N        0.401215349   0.291025201   0.000000000
N        0.386605490   0.448820443   0.000000000
N        0.382768876   0.613276188   0.000000000
N        0.384926459   0.778830300   0.000000000
N        0.387212691   0.945801210   0.000000000
N        0.555852317   0.108504359   0.000000000
N        0.565180048   0.278670214   0.000000000
N        0.547348003   0.609634781   0.000000000
N        0.551355862   0.776195624   0.000000000
N        0.553508507   0.942286180   0.000000000
N        0.722054852   0.106393403   0.000000000
N        0.724432077   0.271636608   0.000000000
N        0.717447017   0.431025886   0.000000000
N        0.705324706   0.595210594   0.000000000
N        0.717010888   0.771837147   0.000000000
N        0.720242064   0.940011127   0.000000000
N        0.888678111   0.107512450   0.000000000
N        0.889823621   0.274169441   0.000000000
N        0.887566819   0.440286166   0.000000000
N        0.879835038   0.603895763   0.000000000
N        0.880952980   0.770243874   0.000000000
N        0.886471662   0.940228968   0.000000000
End final coordinates



     Writing output data file BN.save
 
     init_run     :      4.35s CPU      4.78s WALL (       1 calls)
     electrons    :    587.60s CPU    595.67s WALL (      11 calls)
     update_pot   :     10.34s CPU     11.03s WALL (      10 calls)
     forces       :     13.37s CPU     13.55s WALL (      11 calls)

     Called by init_run:
     wfcinit      :      2.00s CPU      2.07s WALL (       1 calls)
     potinit      :      0.80s CPU      0.83s WALL (       1 calls)

     Called by electrons:
     c_bands      :    493.71s CPU    499.57s WALL (     133 calls)
     sum_band     :     55.27s CPU     55.47s WALL (     133 calls)
     v_of_rho     :     28.15s CPU     28.19s WALL (     138 calls)
     mix_rho      :      7.14s CPU      7.22s WALL (     133 calls)

     Called by c_bands:
     init_us_2    :      5.25s CPU      5.28s WALL (     267 calls)
     cegterg      :    473.92s CPU    479.75s WALL (     133 calls)

     Called by sum_band:

     Called by *egterg:
     h_psi        :    323.72s CPU    324.36s WALL (     717 calls)
     g_psi        :      1.32s CPU      1.32s WALL (     583 calls)
     cdiaghg      :     31.95s CPU     33.15s WALL (     700 calls)

     Called by h_psi:
     h_psi:pot    :    320.24s CPU    320.87s WALL (     717 calls)
     h_psi:calbec :     49.63s CPU     49.76s WALL (     717 calls)
     vloc_psi     :    221.22s CPU    221.74s WALL (     717 calls)
     add_vuspsi   :     49.39s CPU     49.37s WALL (     717 calls)

     General routines
     calbec       :     55.47s CPU     55.62s WALL (     761 calls)
     fft          :     13.43s CPU     13.61s WALL (    2913 calls)
     fftw         :    231.95s CPU    232.57s WALL (  127633 calls)
 
     Parallel routines
     fft_scatter  :    111.89s CPU    112.40s WALL (  130546 calls)
 
     PWSCF        : 10m20.78s CPU    10m35.16s WALL

 
   This run was terminated on:  21:13:55  28Apr2020            

=------------------------------------------------------------------------------=
   JOB DONE.
=------------------------------------------------------------------------------=
