
     Program PWSCF v.6.1 (svn rev. 13369) starts on  1Jun2021 at 13:18:22 

     This program is part of the open-source Quantum ESPRESSO suite
     for quantum simulation of materials; please cite
         "P. Giannozzi et al., J. Phys.:Condens. Matter 21 395502 (2009);
          URL http://www.quantum-espresso.org", 
     in publications or presentations arising from this work. More details at
     http://www.quantum-espresso.org/quote

     Parallel version (MPI), running on    32 processors
     K-points division:     npool     =       2
     R & G space division:  proc/nbgrp/npool/nimage =      16
     Reading input from scf.in
Warning: card &IONS ignored
Warning: card / ignored

     Current dimensions of program PWSCF are:
     Max number of different atomic species (ntypx) = 10
     Max number of k-points (npk) =  40000
     Max angular momentum in pseudopotentials (lmaxx) =  3

     Subspace diagonalization in iterative solution of the eigenvalue problem:
     one sub-group per band group will be used
     scalapack distributed-memory algorithm (size of sub-group:  4*  4 procs)

 
     Parallelization info
     --------------------
     sticks:   dense  smooth     PW     G-vecs:    dense   smooth      PW
     Min         252     252     62                12125    12125    1510
     Max         254     254     63                12129    12129    1515
     Sum        4049    4049   1005               194039   194039   24207
 


     bravais-lattice index     =            1
     lattice parameter (alat)  =      13.4862  a.u.
     unit-cell volume          =    2452.8358 (a.u.)^3
     number of atoms/cell      =           63
     number of atomic types    =            2
     number of electrons       =       254.00 (up: 127.00, down: 127.00)
     number of Kohn-Sham states=          152
     kinetic-energy cutoff     =      70.0000  Ry
     charge density cutoff     =     280.0000  Ry
     convergence threshold     =      1.0E-06
     mixing beta               =       0.5000
     number of iterations used =            8  plain     mixing
     Exchange-correlation      = PBE ( 1  4  3  4 0 0)

     celldm(1)=  13.486197  celldm(2)=   0.000000  celldm(3)=   0.000000
     celldm(4)=   0.000000  celldm(5)=   0.000000  celldm(6)=   0.000000

     crystal axes: (cart. coord. in units of alat)
               a(1) = (   1.000000   0.000000   0.000000 )  
               a(2) = (   0.000000   1.000000   0.000000 )  
               a(3) = (   0.000000   0.000000   1.000000 )  

     reciprocal axes: (cart. coord. in units 2 pi/alat)
               b(1) = (  1.000000  0.000000  0.000000 )  
               b(2) = (  0.000000  1.000000  0.000000 )  
               b(3) = (  0.000000  0.000000  1.000000 )  


     PseudoPot. # 1 for C  read from file:
     /export/data/share/tjsmart/Pseudo/C_ONCV_PBE-1.0.upf
     MD5 check sum: 72b63e32b2fd29504de26a4901699f60
     Pseudo is Norm-conserving, Zval =  4.0
     Generated using ONCVPSP code by D. R. Hamann
     Using radial grid of 1248 points,  4 beta functions with: 
                l(1) =   0
                l(2) =   0
                l(3) =   1
                l(4) =   1

     PseudoPot. # 2 for N  read from file:
     /export/data/share/tjsmart/Pseudo/N_ONCV_PBE-1.0.upf
     MD5 check sum: 09890da6b2972017450f7114a6086fad
     Pseudo is Norm-conserving, Zval =  5.0
     Generated using ONCVPSP code by D. R. Hamann
     Using radial grid of 1058 points,  4 beta functions with: 
                l(1) =   0
                l(2) =   0
                l(3) =   1
                l(4) =   1

     atomic species   valence    mass     pseudopotential
        C              4.00    12.01110     C ( 1.00)
        N              5.00    14.00670     N ( 1.00)

     Starting magnetic structure 
     atomic species   magnetization
        C            0.200
        N            0.200

      6 Sym. Ops. (no inversion) found


                                    s                        frac. trans.

      isym =  1     identity                                     

 cryst.   s( 1) = (     1          0          0      )
                  (     0          1          0      )
                  (     0          0          1      )

 cart.    s( 1) = (  1.0000000  0.0000000  0.0000000 )
                  (  0.0000000  1.0000000  0.0000000 )
                  (  0.0000000  0.0000000  1.0000000 )


      isym =  2     120 deg rotation - cart. axis [-1,-1,-1]     

 cryst.   s( 2) = (     0          0          1      )
                  (     1          0          0      )
                  (     0          1          0      )

 cart.    s( 2) = (  0.0000000  1.0000000  0.0000000 )
                  (  0.0000000  0.0000000  1.0000000 )
                  (  1.0000000  0.0000000  0.0000000 )


      isym =  3     120 deg rotation - cart. axis [1,1,1]        

 cryst.   s( 3) = (     0          1          0      )
                  (     0          0          1      )
                  (     1          0          0      )

 cart.    s( 3) = (  0.0000000  0.0000000  1.0000000 )
                  (  1.0000000  0.0000000  0.0000000 )
                  (  0.0000000  1.0000000  0.0000000 )


      isym =  4     inv. 180 deg rotation - cart. axis [1,-1,0]  

 cryst.   s( 4) = (     0          1          0      )
                  (     1          0          0      )
                  (     0          0          1      )

 cart.    s( 4) = (  0.0000000  1.0000000  0.0000000 )
                  (  1.0000000  0.0000000  0.0000000 )
                  (  0.0000000  0.0000000  1.0000000 )


      isym =  5     inv. 180 deg rotation - cart. axis [-1,0,1]  

 cryst.   s( 5) = (     0          0          1      )
                  (     0          1          0      )
                  (     1          0          0      )

 cart.    s( 5) = (  0.0000000  0.0000000  1.0000000 )
                  (  0.0000000  1.0000000  0.0000000 )
                  (  1.0000000  0.0000000  0.0000000 )


      isym =  6     inv. 180 deg rotation - cart. axis [0,1,-1]  

 cryst.   s( 6) = (     1          0          0      )
                  (     0          0          1      )
                  (     0          1          0      )

 cart.    s( 6) = (  1.0000000  0.0000000  0.0000000 )
                  (  0.0000000  0.0000000  1.0000000 )
                  (  0.0000000  1.0000000  0.0000000 )


     point group C_3v (3m)  
     there are  3 classes
     the character table:

       E     2C3   3s_v 
A_1    1.00  1.00  1.00
A_2    1.00  1.00 -1.00
E      2.00 -1.00  0.00

     the symmetry operations in each class and the name of the first element:

     E        1
          identity                                               
     2C3      2    3
          120 deg rotation - cart. axis [-1,-1,-1]               
     3s_v     4    5    6
          inv. 180 deg rotation - cart. axis [1,-1,0]            

   Cartesian axes

     site n.     atom                  positions (alat units)
         1           C   tau(   1) = (   0.3757341   0.3757341   0.8736967  )
         2           C   tau(   2) = (   0.5000407   0.0001753   0.0001753  )
         3           C   tau(   3) = (   0.5000590  -0.0000497   0.5000590  )
         4           C   tau(   4) = (   0.0001753   0.5000407   0.0001753  )
         5           C   tau(   5) = (  -0.0000497   0.5000590   0.5000590  )
         6           C   tau(   6) = (  -0.0001110  -0.0001110  -0.0001110  )
         7           C   tau(   7) = (   0.0001753   0.0001753   0.5000407  )
         8           C   tau(   8) = (   0.2502085   0.2502085  -0.0012474  )
         9           C   tau(   9) = (   0.2505863   0.2505863   0.4946732  )
        10           C   tau(  10) = (   0.2504219   0.7490213   0.0010118  )
        11           C   tau(  11) = (   0.2527209   0.7477141   0.5016078  )
        12           C   tau(  12) = (   0.7490213   0.2504219   0.0010118  )
        13           C   tau(  13) = (   0.7477141   0.2527209   0.5016078  )
        14           C   tau(  14) = (   0.7496590   0.7496590  -0.0001708  )
        15           C   tau(  15) = (   0.5000590   0.5000590  -0.0000497  )
        16           C   tau(  16) = (   0.7491688   0.7491688   0.4988075  )
        17           C   tau(  17) = (   0.5016078   0.2527209   0.7477141  )
        18           C   tau(  18) = (   0.5016078   0.7477141   0.2527209  )
        19           C   tau(  19) = (   0.4988075   0.7491688   0.7491688  )
        20           C   tau(  20) = (  -0.0012474   0.2502085   0.2502085  )
        21           C   tau(  21) = (   0.0010118   0.2504219   0.7490213  )
        22           C   tau(  22) = (   0.0010118   0.7490213   0.2504219  )
        23           C   tau(  23) = (  -0.0001708   0.7496590   0.7496590  )
        24           C   tau(  24) = (   0.2505863   0.4946732   0.2505863  )
        25           C   tau(  25) = (   0.2527209   0.5016078   0.7477141  )
        26           C   tau(  26) = (   0.2502085  -0.0012474   0.2502085  )
        27           C   tau(  27) = (   0.2504219   0.0010118   0.7490213  )
        28           C   tau(  28) = (   0.7477141   0.5016078   0.2527209  )
        29           C   tau(  29) = (   0.7491688   0.4988075   0.7491688  )
        30           C   tau(  30) = (   0.4946732   0.2505863   0.2505863  )
        31           C   tau(  31) = (   0.7490213   0.0010118   0.2504219  )
        32           C   tau(  32) = (   0.6247024   0.8744892   0.6247024  )
        33           C   tau(  33) = (   0.6346219   0.3677312   0.6346219  )
        34           C   tau(  34) = (   0.3759073   0.8762008   0.8762008  )
        35           C   tau(  35) = (   0.3757341   0.8736967   0.3757341  )
        36           C   tau(  36) = (   0.8762008   0.3759073   0.8762008  )
        37           C   tau(  37) = (   0.8736967   0.3757341   0.3757341  )
        38           C   tau(  38) = (   0.8747237   0.8747237   0.8747237  )
        39           C   tau(  39) = (   0.8762008   0.8762008   0.3759073  )
        40           C   tau(  40) = (   0.1253844   0.1253844   0.8742341  )
        41           C   tau(  41) = (   0.1238062   0.1238062   0.3748656  )
        42           C   tau(  42) = (   0.1244132   0.6245662   0.8758264  )
        43           C   tau(  43) = (   0.1271299   0.6228927   0.3763047  )
        44           C   tau(  44) = (   0.6245662   0.1244132   0.8758264  )
        45           C   tau(  45) = (   0.6228927   0.1271299   0.3763047  )
        46           C   tau(  46) = (   0.6245662   0.8758264   0.1244132  )
        47           C   tau(  47) = (   0.6247024   0.6247024   0.8744892  )
        48           C   tau(  48) = (   0.3748656   0.1238062   0.1238062  )
        49           C   tau(  49) = (   0.3763047   0.1271299   0.6228927  )
        50           C   tau(  50) = (   0.3763047   0.6228927   0.1271299  )
        51           C   tau(  51) = (   0.3677312   0.6346219   0.6346219  )
        52           C   tau(  52) = (   0.8742341   0.1253844   0.1253844  )
        53           C   tau(  53) = (   0.8758264   0.1244132   0.6245662  )
        54           C   tau(  54) = (   0.8758264   0.6245662   0.1244132  )
        55           C   tau(  55) = (   0.8744892   0.6247024   0.6247024  )
        56           C   tau(  56) = (   0.1238062   0.3748656   0.1238062  )
        57           C   tau(  57) = (   0.1271299   0.3763047   0.6228927  )
        58           C   tau(  58) = (   0.1253844   0.8742341   0.1253844  )
        59           C   tau(  59) = (   0.1244132   0.8758264   0.6245662  )
        60           C   tau(  60) = (   0.6228927   0.3763047   0.1271299  )
        61           C   tau(  61) = (   0.6346219   0.6346219   0.3677312  )
        62           C   tau(  62) = (   0.7496590  -0.0001708   0.7496590  )
        63           N   tau(  63) = (   0.3645343   0.3645343   0.3645343  )

   Crystallographic axes

     site n.     atom                  positions (cryst. coord.)
         1           C   tau(   1) = (  0.3757341  0.3757341  0.8736967  )
         2           C   tau(   2) = (  0.5000407  0.0001753  0.0001753  )
         3           C   tau(   3) = (  0.5000590 -0.0000497  0.5000590  )
         4           C   tau(   4) = (  0.0001753  0.5000407  0.0001753  )
         5           C   tau(   5) = ( -0.0000497  0.5000590  0.5000590  )
         6           C   tau(   6) = ( -0.0001110 -0.0001110 -0.0001110  )
         7           C   tau(   7) = (  0.0001753  0.0001753  0.5000407  )
         8           C   tau(   8) = (  0.2502085  0.2502085 -0.0012474  )
         9           C   tau(   9) = (  0.2505863  0.2505863  0.4946732  )
        10           C   tau(  10) = (  0.2504219  0.7490213  0.0010118  )
        11           C   tau(  11) = (  0.2527209  0.7477141  0.5016078  )
        12           C   tau(  12) = (  0.7490213  0.2504219  0.0010118  )
        13           C   tau(  13) = (  0.7477141  0.2527209  0.5016078  )
        14           C   tau(  14) = (  0.7496590  0.7496590 -0.0001708  )
        15           C   tau(  15) = (  0.5000590  0.5000590 -0.0000497  )
        16           C   tau(  16) = (  0.7491688  0.7491688  0.4988075  )
        17           C   tau(  17) = (  0.5016078  0.2527209  0.7477141  )
        18           C   tau(  18) = (  0.5016078  0.7477141  0.2527209  )
        19           C   tau(  19) = (  0.4988075  0.7491688  0.7491688  )
        20           C   tau(  20) = ( -0.0012474  0.2502085  0.2502085  )
        21           C   tau(  21) = (  0.0010118  0.2504219  0.7490213  )
        22           C   tau(  22) = (  0.0010118  0.7490213  0.2504219  )
        23           C   tau(  23) = ( -0.0001708  0.7496590  0.7496590  )
        24           C   tau(  24) = (  0.2505863  0.4946732  0.2505863  )
        25           C   tau(  25) = (  0.2527209  0.5016078  0.7477141  )
        26           C   tau(  26) = (  0.2502085 -0.0012474  0.2502085  )
        27           C   tau(  27) = (  0.2504219  0.0010118  0.7490213  )
        28           C   tau(  28) = (  0.7477141  0.5016078  0.2527209  )
        29           C   tau(  29) = (  0.7491688  0.4988075  0.7491688  )
        30           C   tau(  30) = (  0.4946732  0.2505863  0.2505863  )
        31           C   tau(  31) = (  0.7490213  0.0010118  0.2504219  )
        32           C   tau(  32) = (  0.6247024  0.8744892  0.6247024  )
        33           C   tau(  33) = (  0.6346219  0.3677312  0.6346219  )
        34           C   tau(  34) = (  0.3759073  0.8762008  0.8762008  )
        35           C   tau(  35) = (  0.3757341  0.8736967  0.3757341  )
        36           C   tau(  36) = (  0.8762008  0.3759073  0.8762008  )
        37           C   tau(  37) = (  0.8736967  0.3757341  0.3757341  )
        38           C   tau(  38) = (  0.8747237  0.8747237  0.8747237  )
        39           C   tau(  39) = (  0.8762008  0.8762008  0.3759073  )
        40           C   tau(  40) = (  0.1253844  0.1253844  0.8742341  )
        41           C   tau(  41) = (  0.1238062  0.1238062  0.3748656  )
        42           C   tau(  42) = (  0.1244132  0.6245662  0.8758264  )
        43           C   tau(  43) = (  0.1271299  0.6228927  0.3763047  )
        44           C   tau(  44) = (  0.6245662  0.1244132  0.8758264  )
        45           C   tau(  45) = (  0.6228927  0.1271299  0.3763047  )
        46           C   tau(  46) = (  0.6245662  0.8758264  0.1244132  )
        47           C   tau(  47) = (  0.6247024  0.6247024  0.8744892  )
        48           C   tau(  48) = (  0.3748656  0.1238062  0.1238062  )
        49           C   tau(  49) = (  0.3763047  0.1271299  0.6228927  )
        50           C   tau(  50) = (  0.3763047  0.6228927  0.1271299  )
        51           C   tau(  51) = (  0.3677312  0.6346219  0.6346219  )
        52           C   tau(  52) = (  0.8742341  0.1253844  0.1253844  )
        53           C   tau(  53) = (  0.8758264  0.1244132  0.6245662  )
        54           C   tau(  54) = (  0.8758264  0.6245662  0.1244132  )
        55           C   tau(  55) = (  0.8744892  0.6247024  0.6247024  )
        56           C   tau(  56) = (  0.1238062  0.3748656  0.1238062  )
        57           C   tau(  57) = (  0.1271299  0.3763047  0.6228927  )
        58           C   tau(  58) = (  0.1253844  0.8742341  0.1253844  )
        59           C   tau(  59) = (  0.1244132  0.8758264  0.6245662  )
        60           C   tau(  60) = (  0.6228927  0.3763047  0.1271299  )
        61           C   tau(  61) = (  0.6346219  0.6346219  0.3677312  )
        62           C   tau(  62) = (  0.7496590 -0.0001708  0.7496590  )
        63           N   tau(  63) = (  0.3645343  0.3645343  0.3645343  )

     number of k points=     1  Marzari-Vanderbilt smearing, width (Ry)=  0.0010
                       cart. coord. in units 2pi/alat
        k(    1) = (   0.0000000   0.0000000   0.0000000), wk =   1.0000000

                       cryst. coord.
        k(    1) = (   0.0000000   0.0000000   0.0000000), wk =   1.0000000

     Dense  grid:   194039 G-vectors     FFT dimensions: (  72,  72,  72)

     Estimated max dynamical RAM per process >      42.63MB

     Estimated total allocated dynamical RAM >    1364.05MB
     Generating pointlists ...
     new r_m :   0.0854 (alat units)  1.1523 (a.u.) for type    1
     new r_m :   0.0854 (alat units)  1.1523 (a.u.) for type    2

     Initial potential from superposition of free atoms

     starting charge  252.99722, renormalised to  254.00000
     Starting wfc are  252 randomized atomic wfcs

     total cpu time spent up to now is        4.3 secs

     per-process dynamical memory:    49.0 Mb

     Self-consistent Calculation

     iteration #  1     ecut=    70.00 Ry     beta=0.50
     Davidson diagonalization with overlap
     ethr =  1.00E-02,  avg # of iterations =  3.0

     total cpu time spent up to now is        5.4 secs

     total energy              =    -723.96790251 Ry
     Harris-Foulkes estimate   =    -724.47234221 Ry
     estimated scf accuracy    <       4.37938399 Ry

     total magnetization       =    -0.00 Bohr mag/cell
     absolute magnetization    =     0.88 Bohr mag/cell

     iteration #  2     ecut=    70.00 Ry     beta=0.50
     Davidson diagonalization with overlap
     ethr =  1.72E-03,  avg # of iterations =  2.0

     total cpu time spent up to now is        6.1 secs

     total energy              =    -724.27958543 Ry
     Harris-Foulkes estimate   =    -724.21573416 Ry
     estimated scf accuracy    <       0.70699937 Ry

     total magnetization       =     0.00 Bohr mag/cell
     absolute magnetization    =     0.33 Bohr mag/cell

     iteration #  3     ecut=    70.00 Ry     beta=0.50
     Davidson diagonalization with overlap
     ethr =  2.78E-04,  avg # of iterations =  6.0

     total cpu time spent up to now is        7.3 secs

     total energy              =    -724.34767844 Ry
     Harris-Foulkes estimate   =    -724.40180618 Ry
     estimated scf accuracy    <       0.18729654 Ry

     total magnetization       =     0.00 Bohr mag/cell
     absolute magnetization    =     0.12 Bohr mag/cell

     iteration #  4     ecut=    70.00 Ry     beta=0.50
     Davidson diagonalization with overlap
     ethr =  7.37E-05,  avg # of iterations = 12.5

     total cpu time spent up to now is        9.0 secs

     total energy              =    -724.39261362 Ry
     Harris-Foulkes estimate   =    -724.38933218 Ry
     estimated scf accuracy    <       0.01180101 Ry

     total magnetization       =    -0.00 Bohr mag/cell
     absolute magnetization    =     0.07 Bohr mag/cell

     iteration #  5     ecut=    70.00 Ry     beta=0.50
     Davidson diagonalization with overlap
     c_bands:  1 eigenvalues not converged
     ethr =  4.65E-06,  avg # of iterations = 20.0

     total cpu time spent up to now is       11.5 secs

     total energy              =    -724.39562687 Ry
     Harris-Foulkes estimate   =    -724.39549070 Ry
     estimated scf accuracy    <       0.00147996 Ry

     total magnetization       =    -0.00 Bohr mag/cell
     absolute magnetization    =     0.03 Bohr mag/cell

     iteration #  6     ecut=    70.00 Ry     beta=0.50
     Davidson diagonalization with overlap
     ethr =  5.83E-07,  avg # of iterations = 10.0

     total cpu time spent up to now is       13.1 secs

     total energy              =    -724.39590523 Ry
     Harris-Foulkes estimate   =    -724.39592149 Ry
     estimated scf accuracy    <       0.00018286 Ry

     total magnetization       =    -0.00 Bohr mag/cell
     absolute magnetization    =     0.02 Bohr mag/cell

     iteration #  7     ecut=    70.00 Ry     beta=0.50
     Davidson diagonalization with overlap
     ethr =  7.20E-08,  avg # of iterations =  3.0

     total cpu time spent up to now is       14.1 secs

     total energy              =    -724.39595732 Ry
     Harris-Foulkes estimate   =    -724.39596412 Ry
     estimated scf accuracy    <       0.00003068 Ry

     total magnetization       =     0.00 Bohr mag/cell
     absolute magnetization    =     0.01 Bohr mag/cell

     iteration #  8     ecut=    70.00 Ry     beta=0.50
     Davidson diagonalization with overlap
     ethr =  1.21E-08,  avg # of iterations =  3.0

     total cpu time spent up to now is       14.9 secs

     total energy              =    -724.39596470 Ry
     Harris-Foulkes estimate   =    -724.39596424 Ry
     estimated scf accuracy    <       0.00000224 Ry

     total magnetization       =    -0.00 Bohr mag/cell
     absolute magnetization    =     0.01 Bohr mag/cell

     iteration #  9     ecut=    70.00 Ry     beta=0.50
     Davidson diagonalization with overlap
     ethr =  8.83E-10,  avg # of iterations =  3.0
 
     Magnetic moment per site:
     atom:    1    charge:    1.8288    magn:   -0.0000    constr:    0.0000
     atom:    2    charge:    1.8448    magn:   -0.0000    constr:    0.0000
     atom:    3    charge:    1.8344    magn:    0.0000    constr:    0.0000
     atom:    4    charge:    1.8448    magn:   -0.0000    constr:    0.0000
     atom:    5    charge:    1.8344    magn:    0.0000    constr:    0.0000
     atom:    6    charge:    1.8243    magn:    0.0000    constr:    0.0000
     atom:    7    charge:    1.8448    magn:   -0.0000    constr:    0.0000
     atom:    8    charge:    1.8279    magn:    0.0000    constr:    0.0000
     atom:    9    charge:    1.8063    magn:   -0.0002    constr:    0.0000
     atom:   10    charge:    1.8218    magn:    0.0000    constr:    0.0000
     atom:   11    charge:    1.8315    magn:    0.0000    constr:    0.0000
     atom:   12    charge:    1.8218    magn:    0.0000    constr:    0.0000
     atom:   13    charge:    1.8315    magn:    0.0000    constr:    0.0000
     atom:   14    charge:    1.8279    magn:    0.0000    constr:    0.0000
     atom:   15    charge:    1.8344    magn:    0.0000    constr:    0.0000
     atom:   16    charge:    1.8359    magn:    0.0000    constr:    0.0000
     atom:   17    charge:    1.8315    magn:    0.0000    constr:    0.0000
     atom:   18    charge:    1.8315    magn:    0.0000    constr:    0.0000
     atom:   19    charge:    1.8359    magn:    0.0000    constr:    0.0000
     atom:   20    charge:    1.8279    magn:    0.0000    constr:    0.0000
     atom:   21    charge:    1.8218    magn:    0.0000    constr:    0.0000
     atom:   22    charge:    1.8218    magn:    0.0000    constr:    0.0000
     atom:   23    charge:    1.8279    magn:    0.0000    constr:    0.0000
     atom:   24    charge:    1.8063    magn:   -0.0002    constr:    0.0000
     atom:   25    charge:    1.8315    magn:    0.0000    constr:    0.0000
     atom:   26    charge:    1.8279    magn:    0.0000    constr:    0.0000
     atom:   27    charge:    1.8218    magn:    0.0000    constr:    0.0000
     atom:   28    charge:    1.8315    magn:    0.0000    constr:    0.0000
     atom:   29    charge:    1.8359    magn:    0.0000    constr:    0.0000
     atom:   30    charge:    1.8063    magn:   -0.0002    constr:    0.0000
     atom:   31    charge:    1.8218    magn:    0.0000    constr:    0.0000
     atom:   32    charge:    1.8279    magn:    0.0000    constr:    0.0000
     atom:   33    charge:    1.8386    magn:    0.0000    constr:    0.0000
     atom:   34    charge:    1.8259    magn:    0.0000    constr:    0.0000
     atom:   35    charge:    1.8288    magn:   -0.0000    constr:    0.0000
     atom:   36    charge:    1.8259    magn:    0.0000    constr:    0.0000
     atom:   37    charge:    1.8288    magn:   -0.0000    constr:    0.0000
     atom:   38    charge:    1.8298    magn:    0.0000    constr:    0.0000
     atom:   39    charge:    1.8259    magn:    0.0000    constr:    0.0000
     atom:   40    charge:    1.8310    magn:    0.0000    constr:    0.0000
     atom:   41    charge:    1.8380    magn:    0.0000    constr:    0.0000
     atom:   42    charge:    1.8261    magn:    0.0000    constr:    0.0000
     atom:   43    charge:    1.8244    magn:    0.0000    constr:    0.0000
     atom:   44    charge:    1.8261    magn:    0.0000    constr:    0.0000
     atom:   45    charge:    1.8244    magn:    0.0000    constr:    0.0000
     atom:   46    charge:    1.8261    magn:    0.0000    constr:    0.0000
     atom:   47    charge:    1.8279    magn:    0.0000    constr:    0.0000
     atom:   48    charge:    1.8380    magn:    0.0000    constr:    0.0000
     atom:   49    charge:    1.8244    magn:    0.0000    constr:    0.0000
     atom:   50    charge:    1.8244    magn:    0.0000    constr:    0.0000
     atom:   51    charge:    1.8386    magn:    0.0000    constr:    0.0000
     atom:   52    charge:    1.8310    magn:    0.0000    constr:    0.0000
     atom:   53    charge:    1.8261    magn:    0.0000    constr:    0.0000
     atom:   54    charge:    1.8261    magn:    0.0000    constr:    0.0000
     atom:   55    charge:    1.8279    magn:    0.0000    constr:    0.0000
     atom:   56    charge:    1.8380    magn:    0.0000    constr:    0.0000
     atom:   57    charge:    1.8244    magn:    0.0000    constr:    0.0000
     atom:   58    charge:    1.8310    magn:    0.0000    constr:    0.0000
     atom:   59    charge:    1.8261    magn:    0.0000    constr:    0.0000
     atom:   60    charge:    1.8244    magn:    0.0000    constr:    0.0000
     atom:   61    charge:    1.8386    magn:    0.0000    constr:    0.0000
     atom:   62    charge:    1.8279    magn:    0.0000    constr:    0.0000
     atom:   63    charge:    2.9227    magn:    0.0007    constr:    0.0000

     total cpu time spent up to now is       15.9 secs

     End of self-consistent calculation

 ------ SPIN UP ------------


          k = 0.0000 0.0000 0.0000 ( 24207 PWs)   bands (ev):

    -8.5394  -6.9465  -6.2514  -6.2514  -6.1366  -6.1366  -5.8611  -4.9105
    -4.1087  -4.1087  -4.0830  -4.0830  -3.9957  -3.9957  -3.9703  -3.9160
    -3.8466  -3.8466  -3.3436  -2.9389  -2.6436  -2.6436  -2.0415  -0.3552
    -0.3552  -0.3256  -0.2944  -0.0686   0.1928   0.1928   0.2994   0.2994
     0.3692   0.6179   0.8342   0.8342   0.9988   0.9988   1.0254   1.0420
     1.0420   1.0709   1.3705   1.3705   3.0799   3.9215   3.9215   4.0503
     4.2362   4.2417   4.2417   4.2485   4.2789   4.2789   4.4390   4.4390
     4.4885   4.4885   4.5994   4.6613   4.6613   4.6631   4.6711   4.7619
     4.7619   4.8896   4.9509   4.9509   5.0710   5.2291   5.2291   5.2880
     5.3469   5.3469   5.3874   5.4249   5.4249   6.0303   6.0303   6.0588
     6.6231   6.6231   6.7350   7.0032   7.0445   7.0445   7.5435   8.3287
     8.3287   8.3983   8.4712   8.4712   8.6507   8.6507   8.8033   8.8163
     8.8163   8.8223   8.8763   8.8763   8.9037   9.2682   9.2723   9.2723
     9.6942   9.6942   9.8940   9.9052   9.9052   9.9162   9.9437   9.9662
     9.9662   9.9719  10.0016  10.0016  10.1088  10.1088  10.2663  10.2663
    10.3256  11.0902  12.2971  12.4791  12.4791  13.9469  15.3507  15.3507
    17.3294  17.3571  17.3571  17.5131  17.5355  17.5355  17.8415  17.8981
    17.8981  17.9895  17.9895  18.3691  18.9286  18.9286  18.9590  20.6569
    20.7849  20.7850  20.8285  20.9064  20.9065  20.9864  20.9865  21.0175

     occupation numbers 
     1.0000   1.0000   1.0000   1.0000   1.0000   1.0000   1.0000   1.0000
     1.0000   1.0000   1.0000   1.0000   1.0000   1.0000   1.0000   1.0000
     1.0000   1.0000   1.0000   1.0000   1.0000   1.0000   1.0000   1.0000
     1.0000   1.0000   1.0000   1.0000   1.0000   1.0000   1.0000   1.0000
     1.0000   1.0000   1.0000   1.0000   1.0000   1.0000   1.0000   1.0000
     1.0000   1.0000   1.0000   1.0000   1.0000   1.0000   1.0000   1.0000
     1.0000   1.0000   1.0000   1.0000   1.0000   1.0000   1.0000   1.0000
     1.0000   1.0000   1.0000   1.0000   1.0000   1.0000   1.0000   1.0000
     1.0000   1.0000   1.0000   1.0000   1.0000   1.0000   1.0000   1.0000
     1.0000   1.0000   1.0000   1.0000   1.0000   1.0000   1.0000   1.0000
     1.0000   1.0000   1.0000   1.0000   1.0000   1.0000   1.0000   1.0000
     1.0000   1.0000   1.0000   1.0000   1.0000   1.0000   1.0000   1.0000
     1.0000   1.0000   1.0000   1.0000   1.0000   1.0000   1.0000   1.0000
     1.0000   1.0000   1.0000   1.0000   1.0000   1.0000   1.0000   1.0000
     1.0000   1.0000   1.0000   1.0000   1.0000   1.0000   1.0000   1.0000
     1.0000   1.0000   1.0000   1.0000   1.0000   1.0000   0.5000   0.5000
     0.0000   0.0000   0.0000   0.0000   0.0000   0.0000   0.0000   0.0000
     0.0000   0.0000   0.0000   0.0000   0.0000   0.0000   0.0000   0.0000
     0.0000   0.0000   0.0000   0.0000   0.0000   0.0000   0.0000   0.0000

 ------ SPIN DOWN ----------


          k = 0.0000 0.0000 0.0000 ( 24207 PWs)   bands (ev):

    -8.5394  -6.9459  -6.2516  -6.2516  -6.1368  -6.1368  -5.8611  -4.9100
    -4.1088  -4.1088  -4.0832  -4.0832  -3.9958  -3.9958  -3.9704  -3.9161
    -3.8467  -3.8467  -3.3437  -2.9388  -2.6437  -2.6437  -2.0414  -0.3553
    -0.3553  -0.3258  -0.2946  -0.0684   0.1927   0.1927   0.2993   0.2993
     0.3691   0.6179   0.8340   0.8340   0.9987   0.9987   1.0254   1.0419
     1.0419   1.0709   1.3704   1.3704   3.0798   3.9216   3.9216   4.0503
     4.2361   4.2417   4.2417   4.2484   4.2788   4.2788   4.4389   4.4389
     4.4884   4.4884   4.5993   4.6612   4.6612   4.6630   4.6710   4.7619
     4.7619   4.8895   4.9508   4.9508   5.0709   5.2291   5.2291   5.2879
     5.3468   5.3468   5.3873   5.4249   5.4249   6.0302   6.0302   6.0588
     6.6232   6.6232   6.7349   7.0032   7.0445   7.0445   7.5434   8.3288
     8.3288   8.3983   8.4712   8.4712   8.6508   8.6508   8.8032   8.8163
     8.8163   8.8223   8.8762   8.8762   8.9037   9.2682   9.2722   9.2722
     9.6943   9.6943   9.8940   9.9052   9.9052   9.9163   9.9437   9.9662
     9.9662   9.9719  10.0016  10.0016  10.1088  10.1088  10.2664  10.2664
    10.3257  11.0907  12.2971  12.4791  12.4791  13.9477  15.3503  15.3503
    17.3295  17.3571  17.3571  17.5130  17.5355  17.5355  17.8416  17.8980
    17.8980  17.9895  17.9895  18.3690  18.9287  18.9287  18.9591  20.6572
    20.7849  20.7849  20.8286  20.9065  20.9065  20.9863  20.9864  21.0172

     occupation numbers 
     1.0000   1.0000   1.0000   1.0000   1.0000   1.0000   1.0000   1.0000
     1.0000   1.0000   1.0000   1.0000   1.0000   1.0000   1.0000   1.0000
     1.0000   1.0000   1.0000   1.0000   1.0000   1.0000   1.0000   1.0000
     1.0000   1.0000   1.0000   1.0000   1.0000   1.0000   1.0000   1.0000
     1.0000   1.0000   1.0000   1.0000   1.0000   1.0000   1.0000   1.0000
     1.0000   1.0000   1.0000   1.0000   1.0000   1.0000   1.0000   1.0000
     1.0000   1.0000   1.0000   1.0000   1.0000   1.0000   1.0000   1.0000
     1.0000   1.0000   1.0000   1.0000   1.0000   1.0000   1.0000   1.0000
     1.0000   1.0000   1.0000   1.0000   1.0000   1.0000   1.0000   1.0000
     1.0000   1.0000   1.0000   1.0000   1.0000   1.0000   1.0000   1.0000
     1.0000   1.0000   1.0000   1.0000   1.0000   1.0000   1.0000   1.0000
     1.0000   1.0000   1.0000   1.0000   1.0000   1.0000   1.0000   1.0000
     1.0000   1.0000   1.0000   1.0000   1.0000   1.0000   1.0000   1.0000
     1.0000   1.0000   1.0000   1.0000   1.0000   1.0000   1.0000   1.0000
     1.0000   1.0000   1.0000   1.0000   1.0000   1.0000   1.0000   1.0000
     1.0000   1.0000   1.0000   1.0000   1.0000   1.0000   0.5000   0.5000
     0.0000   0.0000   0.0000   0.0000   0.0000   0.0000   0.0000   0.0000
     0.0000   0.0000   0.0000   0.0000   0.0000   0.0000   0.0000   0.0000
     0.0000   0.0000   0.0000   0.0000   0.0000   0.0000   0.0000   0.0000

     the spin up/dw Fermi energies are    15.3526   15.3522 ev

!    total energy              =    -724.39596591 Ry
     Harris-Foulkes estimate   =    -724.39596538 Ry
     estimated scf accuracy    <       0.00000042 Ry

     The total energy is the sum of the following terms:

     one-electron contribution =     232.89423858 Ry
     hartree contribution      =      69.75381325 Ry
     xc contribution           =    -226.57663608 Ry
     ewald contribution        =    -800.46672529 Ry
     smearing contrib. (-TS)   =      -0.00065637 Ry

     total magnetization       =    -0.00 Bohr mag/cell
     absolute magnetization    =     0.00 Bohr mag/cell

     convergence has been achieved in   9 iterations

     Writing output data file di.save
 
     init_run     :      1.29s CPU      1.74s WALL (       1 calls)
     electrons    :     11.32s CPU     11.71s WALL (       1 calls)

     Called by init_run:
     wfcinit      :      0.36s CPU      0.39s WALL (       1 calls)
     wfcinit:atom :      0.00s CPU      0.00s WALL (       1 calls)
     wfcinit:wfcr :      0.34s CPU      0.36s WALL (       1 calls)
     potinit      :      0.08s CPU      0.09s WALL (       1 calls)

     Called by electrons:
     c_bands      :     10.32s CPU     10.68s WALL (       9 calls)
     sum_band     :      0.54s CPU      0.55s WALL (       9 calls)
     v_of_rho     :      0.37s CPU      0.37s WALL (      10 calls)
     v_h          :      0.01s CPU      0.01s WALL (      10 calls)
     v_xc         :      0.36s CPU      0.36s WALL (      10 calls)
     mix_rho      :      0.06s CPU      0.06s WALL (       9 calls)

     Called by c_bands:
     init_us_2    :      0.09s CPU      0.09s WALL (      19 calls)
     cegterg      :      9.68s CPU     10.04s WALL (       9 calls)

     Called by sum_band:

     Called by *egterg:
     h_psi        :      4.14s CPU      4.22s WALL (      71 calls)
     g_psi        :      0.02s CPU      0.02s WALL (      61 calls)
     cdiaghg      :      3.64s CPU      3.83s WALL (      70 calls)
     cegterg:over :      0.82s CPU      0.82s WALL (      61 calls)
     cegterg:upda :      0.83s CPU      0.84s WALL (      61 calls)
     cegterg:last :      0.26s CPU      0.26s WALL (       9 calls)
     cdiaghg:chol :      0.29s CPU      0.34s WALL (      70 calls)
     cdiaghg:inve :      0.20s CPU      0.20s WALL (      70 calls)
     cdiaghg:para :      0.29s CPU      0.34s WALL (     140 calls)

     Called by h_psi:
     h_psi:pot    :      4.08s CPU      4.16s WALL (      71 calls)
     h_psi:calbec :      0.91s CPU      0.93s WALL (      71 calls)
     vloc_psi     :      2.25s CPU      2.30s WALL (      71 calls)
     add_vuspsi   :      0.92s CPU      0.94s WALL (      71 calls)

     General routines
     calbec       :      0.91s CPU      0.93s WALL (      71 calls)
     fft          :      0.11s CPU      0.42s WALL (     207 calls)
     fftw         :      2.43s CPU      2.40s WALL (    9176 calls)
 
     Parallel routines
     fft_scatter  :      0.69s CPU      0.71s WALL (    9383 calls)
 
     PWSCF        :    13.27s CPU        16.70s WALL

 
   This run was terminated on:  13:18:39   1Jun2021            

=------------------------------------------------------------------------------=
   JOB DONE.
=------------------------------------------------------------------------------=
