
     Program PWSCF v.6.1 (svn rev. 13369) starts on 28Apr2020 at 22:12:54 

     This program is part of the open-source Quantum ESPRESSO suite
     for quantum simulation of materials; please cite
         "P. Giannozzi et al., J. Phys.:Condens. Matter 21 395502 (2009);
          URL http://www.quantum-espresso.org", 
     in publications or presentations arising from this work. More details at
     http://www.quantum-espresso.org/quote

     Parallel version (MPI), running on    32 processors
     K-points division:     npool     =       2
     R & G space division:  proc/nbgrp/npool/nimage =      16
     Reading input from scf.in
Warning: card &IONS ignored
Warning: card / ignored

     Current dimensions of program PWSCF are:
     Max number of different atomic species (ntypx) = 10
     Max number of k-points (npk) =  40000
     Max angular momentum in pseudopotentials (lmaxx) =  3

     Subspace diagonalization in iterative solution of the eigenvalue problem:
     one sub-group per band group will be used
     scalapack distributed-memory algorithm (size of sub-group:  4*  4 procs)

 
     Parallelization info
     --------------------
     sticks:   dense  smooth     PW     G-vecs:    dense   smooth      PW
     Min         766     766    191                91100    91100   11396
     Max         767     767    193                91105    91105   11399
     Sum       12259   12259   3067              1457633  1457633  182351
 


     bravais-lattice index     =            0
     lattice parameter (alat)  =      28.4285  a.u.
     unit-cell volume          =   26452.5957 (a.u.)^3
     number of atoms/cell      =           71
     number of atomic types    =            2
     number of electrons       =       285.00
     number of Kohn-Sham states=          151
     kinetic-energy cutoff     =      55.0000  Ry
     charge density cutoff     =     220.0000  Ry
     convergence threshold     =      1.0E-06
     mixing beta               =       0.7000
     number of iterations used =            8  plain     mixing
     Exchange-correlation      = PBE ( 1  4  3  4 0 0)

     celldm(1)=  28.428530  celldm(2)=   0.000000  celldm(3)=   0.000000
     celldm(4)=   0.000000  celldm(5)=   0.000000  celldm(6)=   0.000000

     crystal axes: (cart. coord. in units of alat)
               a(1) = (   1.000000   0.000000   0.000000 )  
               a(2) = (  -0.500000   0.866025   0.000000 )  
               a(3) = (   0.000000   0.000000   1.329458 )  

     reciprocal axes: (cart. coord. in units 2 pi/alat)
               b(1) = (  1.000000  0.577350  0.000000 )  
               b(2) = (  0.000000  1.154701  0.000000 )  
               b(3) = (  0.000000  0.000000  0.752187 )  


     PseudoPot. # 1 for B  read from file:
     /home/tjsmart/Pseudo/B_ONCV_PBE-1.0.upf
     MD5 check sum: a9fd2462c33df863cd3ce8a66ea40380
     Pseudo is Norm-conserving, Zval =  3.0
     Generated using ONCVPSP code by D. R. Hamann
     Using radial grid of 1534 points,  4 beta functions with: 
                l(1) =   0
                l(2) =   0
                l(3) =   1
                l(4) =   1

     PseudoPot. # 2 for N  read from file:
     /home/tjsmart/Pseudo/N_ONCV_PBE-1.0.upf
     MD5 check sum: 09890da6b2972017450f7114a6086fad
     Pseudo is Norm-conserving, Zval =  5.0
     Generated using ONCVPSP code by D. R. Hamann
     Using radial grid of 1058 points,  4 beta functions with: 
                l(1) =   0
                l(2) =   0
                l(3) =   1
                l(4) =   1

     atomic species   valence    mass     pseudopotential
        B              3.00    10.81100     B ( 1.00)
        N              5.00    14.00670     N ( 1.00)

     Starting magnetic structure 
     atomic species   magnetization
        B            0.500
        N            0.500

      2 Sym. Ops. (no inversion) found



   Cartesian axes

     site n.     atom                  positions (alat units)
         1           B   tau(   1) = (   0.0847163   0.0483923   0.0000000  )
         2           B   tau(   2) = (   0.0024798   0.1918620   0.0000000  )
         3           B   tau(   3) = (  -0.0835101   0.3356106   0.0000000  )
         4           B   tau(   4) = (  -0.1700187   0.4799368   0.0000000  )
         5           B   tau(   5) = (  -0.2536119   0.6242296   0.0000000  )
         6           B   tau(   6) = (  -0.3351317   0.7686080   0.0000000  )
         7           B   tau(   7) = (   0.2500097   0.0504443   0.0000000  )
         8           B   tau(   8) = (   0.1711644   0.1990159   0.0000000  )
         9           B   tau(   9) = (   0.0824319   0.3385541   0.0000000  )
        10           B   tau(  10) = (  -0.0048779   0.4813865   0.0000000  )
        11           B   tau(  11) = (  -0.0873488   0.6255711   0.0000000  )
        12           B   tau(  12) = (  -0.1692995   0.7701821   0.0000000  )
        13           B   tau(  13) = (   0.4157660   0.0490106   0.0000000  )
        14           B   tau(  14) = (   0.3329643   0.1981966   0.0000000  )
        15           B   tau(  15) = (   0.2552152   0.3590730   0.0000000  )
        16           B   tau(  16) = (   0.1585373   0.4835979   0.0000000  )
        17           B   tau(  17) = (   0.0787184   0.6261753   0.0000000  )
        18           B   tau(  18) = (  -0.0025225   0.7699796   0.0000000  )
        19           B   tau(  19) = (   0.5847865   0.0449230   0.0000000  )
        20           B   tau(  20) = (   0.5070170   0.1878072   0.0000000  )
        21           N   tau(  21) = (   0.4273040   0.3284125   0.0000000  )
        22           B   tau(  22) = (   0.3147717   0.4623184   0.0000000  )
        23           B   tau(  23) = (   0.2460874   0.6220758   0.0000000  )
        24           B   tau(  24) = (   0.1657009   0.7672020   0.0000000  )
        25           B   tau(  25) = (   0.7522029   0.0437363   0.0000000  )
        26           B   tau(  26) = (   0.6718981   0.1872311   0.0000000  )
        27           B   tau(  27) = (   0.5888757   0.3296592   0.0000000  )
        28           B   tau(  28) = (   0.4928693   0.4753012   0.0000000  )
        29           B   tau(  29) = (   0.4113276   0.6151333   0.0000000  )
        30           B   tau(  30) = (   0.3331760   0.7646626   0.0000000  )
        31           B   tau(  31) = (   0.9182428   0.0450038   0.0000000  )
        32           B   tau(  32) = (   0.8363062   0.1894324   0.0000000  )
        33           B   tau(  33) = (   0.7515512   0.3338394   0.0000000  )
        34           B   tau(  34) = (   0.6634506   0.4781211   0.0000000  )
        35           B   tau(  35) = (   0.5793429   0.6209555   0.0000000  )
        36           B   tau(  36) = (   0.4985975   0.7652706   0.0000000  )
        37           N   tau(  37) = (   0.0011091   0.0950049   0.0000000  )
        38           N   tau(  38) = (  -0.0818212   0.2389967   0.0000000  )
        39           N   tau(  39) = (  -0.1674549   0.3833819   0.0000000  )
        40           N   tau(  40) = (  -0.2541834   0.5273733   0.0000000  )
        41           N   tau(  41) = (  -0.3371345   0.6711861   0.0000000  )
        42           N   tau(  42) = (  -0.4178061   0.8164684   0.0000000  )
        43           N   tau(  43) = (   0.1684045   0.0998511   0.0000000  )
        44           N   tau(  44) = (   0.0848355   0.2417553   0.0000000  )
        45           N   tau(  45) = (  -0.0024617   0.3851785   0.0000000  )
        46           N   tau(  46) = (  -0.0882602   0.5293536   0.0000000  )
        47           N   tau(  47) = (  -0.1706449   0.6736386   0.0000000  )
        48           N   tau(  48) = (  -0.2517606   0.8189744   0.0000000  )
        49           N   tau(  49) = (   0.3341254   0.1006611   0.0000000  )
        50           N   tau(  50) = (   0.2557027   0.2520352   0.0000000  )
        51           N   tau(  51) = (   0.1621953   0.3886899   0.0000000  )
        52           N   tau(  52) = (   0.0761308   0.5311128   0.0000000  )
        53           N   tau(  53) = (  -0.0044887   0.6744868   0.0000000  )
        54           N   tau(  54) = (  -0.0856879   0.8190879   0.0000000  )
        55           N   tau(  55) = (   0.5016001   0.0939675   0.0000000  )
        56           N   tau(  56) = (   0.4258449   0.2413355   0.0000000  )
        57           N   tau(  57) = (   0.2425306   0.5279592   0.0000000  )
        58           N   tau(  58) = (   0.1632580   0.6722051   0.0000000  )
        59           N   tau(  59) = (   0.0823654   0.8160438   0.0000000  )
        60           N   tau(  60) = (   0.6688582   0.0921394   0.0000000  )
        61           N   tau(  61) = (   0.5886138   0.2352442   0.0000000  )
        62           N   tau(  62) = (   0.5019341   0.3732794   0.0000000  )
        63           N   tau(  63) = (   0.4077194   0.5154675   0.0000000  )
        64           N   tau(  64) = (   0.3310923   0.6684306   0.0000000  )
        65           N   tau(  65) = (   0.2502365   0.8140735   0.0000000  )
        66           N   tau(  66) = (   0.8349219   0.0931085   0.0000000  )
        67           N   tau(  67) = (   0.7527389   0.2374377   0.0000000  )
        68           N   tau(  68) = (   0.6674237   0.3812990   0.0000000  )
        69           N   tau(  69) = (   0.5778872   0.5229891   0.0000000  )
        70           N   tau(  70) = (   0.4958310   0.6670508   0.0000000  )
        71           N   tau(  71) = (   0.4163572   0.8142622   0.0000000  )

     number of k points=     1
                       cart. coord. in units 2pi/alat
        k(    1) = (   0.0000000   0.0000000   0.0000000), wk =   1.0000000

     Dense  grid:  1457633 G-vectors     FFT dimensions: ( 135, 135, 180)

     Occupations read from input 

      Spin-up

        1.0000   1.0000   1.0000   1.0000   1.0000   1.0000   1.0000   1.0000
        1.0000   1.0000   1.0000   1.0000   1.0000   1.0000   1.0000   1.0000
        1.0000   1.0000   1.0000   1.0000   1.0000   1.0000   1.0000   1.0000
        1.0000   1.0000   1.0000   1.0000   1.0000   1.0000   1.0000   1.0000
        1.0000   1.0000   1.0000   1.0000   1.0000   1.0000   1.0000   1.0000
        1.0000   1.0000   1.0000   1.0000   1.0000   1.0000   1.0000   1.0000
        1.0000   1.0000   1.0000   1.0000   1.0000   1.0000   1.0000   1.0000
        1.0000   1.0000   1.0000   1.0000   1.0000   1.0000   1.0000   1.0000
        1.0000   1.0000   1.0000   1.0000   1.0000   1.0000   1.0000   1.0000
        1.0000   1.0000   1.0000   1.0000   1.0000   1.0000   1.0000   1.0000
        1.0000   1.0000   1.0000   1.0000   1.0000   1.0000   1.0000   1.0000
        1.0000   1.0000   1.0000   1.0000   1.0000   1.0000   1.0000   1.0000
        1.0000   1.0000   1.0000   1.0000   1.0000   1.0000   1.0000   1.0000
        1.0000   1.0000   1.0000   1.0000   1.0000   1.0000   1.0000   1.0000
        1.0000   1.0000   1.0000   1.0000   1.0000   1.0000   1.0000   1.0000
        1.0000   1.0000   1.0000   1.0000   1.0000   1.0000   1.0000   1.0000
        1.0000   1.0000   1.0000   1.0000   1.0000   1.0000   1.0000   1.0000
        1.0000   1.0000   1.0000   1.0000   1.0000   1.0000   0.0000   1.0000
        0.0000   0.0000   0.0000   0.0000   0.0000   0.0000   0.0000

      Spin-down

        1.0000   1.0000   1.0000   1.0000   1.0000   1.0000   1.0000   1.0000
        1.0000   1.0000   1.0000   1.0000   1.0000   1.0000   1.0000   1.0000
        1.0000   1.0000   1.0000   1.0000   1.0000   1.0000   1.0000   1.0000
        1.0000   1.0000   1.0000   1.0000   1.0000   1.0000   1.0000   1.0000
        1.0000   1.0000   1.0000   1.0000   1.0000   1.0000   1.0000   1.0000
        1.0000   1.0000   1.0000   1.0000   1.0000   1.0000   1.0000   1.0000
        1.0000   1.0000   1.0000   1.0000   1.0000   1.0000   1.0000   1.0000
        1.0000   1.0000   1.0000   1.0000   1.0000   1.0000   1.0000   1.0000
        1.0000   1.0000   1.0000   1.0000   1.0000   1.0000   1.0000   1.0000
        1.0000   1.0000   1.0000   1.0000   1.0000   1.0000   1.0000   1.0000
        1.0000   1.0000   1.0000   1.0000   1.0000   1.0000   1.0000   1.0000
        1.0000   1.0000   1.0000   1.0000   1.0000   1.0000   1.0000   1.0000
        1.0000   1.0000   1.0000   1.0000   1.0000   1.0000   1.0000   1.0000
        1.0000   1.0000   1.0000   1.0000   1.0000   1.0000   1.0000   1.0000
        1.0000   1.0000   1.0000   1.0000   1.0000   1.0000   1.0000   1.0000
        1.0000   1.0000   1.0000   1.0000   1.0000   1.0000   1.0000   1.0000
        1.0000   1.0000   1.0000   1.0000   1.0000   1.0000   1.0000   1.0000
        1.0000   1.0000   1.0000   1.0000   1.0000   1.0000   0.0000   0.0000
        0.0000   0.0000   0.0000   0.0000   0.0000   0.0000   0.0000

     Estimated max dynamical RAM per process >     320.92MB

     Estimated total allocated dynamical RAM >   10269.45MB
     Generating pointlists ...
     new r_m :   0.0388 (alat units)  1.1023 (a.u.) for type    1
     new r_m :   0.0359 (alat units)  1.0212 (a.u.) for type    2

     Initial potential from superposition of free atoms
     Check: negative starting charge=(component1):   -0.003141
     Check: negative starting charge=(component2):   -0.001047

     starting charge  284.99101, renormalised to  285.00000

     negative rho (up, down):  3.142E-03 1.047E-03
     Starting wfc are  284 randomized atomic wfcs

     total cpu time spent up to now is        9.2 secs

     per-process dynamical memory:   237.9 Mb

     Self-consistent Calculation

     iteration #  1     ecut=    55.00 Ry     beta=0.70
     Davidson diagonalization with overlap
     ethr =  1.00E-02,  avg # of iterations =  2.0

     negative rho (up, down):  5.125E-04 1.061E-04

     total cpu time spent up to now is       18.6 secs

     total energy              =    -914.90094789 Ry
     Harris-Foulkes estimate   =    -914.83399238 Ry
     estimated scf accuracy    <      16.97277496 Ry

     total magnetization       =     1.00 Bohr mag/cell
     absolute magnetization    =    10.57 Bohr mag/cell

     iteration #  2     ecut=    55.00 Ry     beta=0.70
     Davidson diagonalization with overlap
     ethr =  5.96E-03,  avg # of iterations =  3.0

     negative rho (up, down):  2.349E-04 2.940E-05

     total cpu time spent up to now is       28.7 secs

     total energy              =    -917.01720157 Ry
     Harris-Foulkes estimate   =    -921.94955918 Ry
     estimated scf accuracy    <      10.59913348 Ry

     total magnetization       =     1.00 Bohr mag/cell
     absolute magnetization    =     4.72 Bohr mag/cell

     iteration #  3     ecut=    55.00 Ry     beta=0.70
     Davidson diagonalization with overlap
     ethr =  3.72E-03,  avg # of iterations =  5.0

     negative rho (up, down):  1.254E-04 8.759E-06

     total cpu time spent up to now is       38.4 secs

     total energy              =    -918.44840448 Ry
     Harris-Foulkes estimate   =    -921.06481921 Ry
     estimated scf accuracy    <       7.55223032 Ry

     total magnetization       =     1.00 Bohr mag/cell
     absolute magnetization    =     3.88 Bohr mag/cell

     iteration #  4     ecut=    55.00 Ry     beta=0.70
     Davidson diagonalization with overlap
     ethr =  2.65E-03,  avg # of iterations =  5.0

     negative rho (up, down):  4.637E-06 1.616E-09

     total cpu time spent up to now is       46.5 secs

     total energy              =    -920.28672163 Ry
     Harris-Foulkes estimate   =    -920.39149323 Ry
     estimated scf accuracy    <       0.55724219 Ry

     total magnetization       =     1.00 Bohr mag/cell
     absolute magnetization    =     3.57 Bohr mag/cell

     iteration #  5     ecut=    55.00 Ry     beta=0.70
     Davidson diagonalization with overlap
     ethr =  1.96E-04,  avg # of iterations =  7.0

     total cpu time spent up to now is       56.9 secs

     total energy              =    -920.30181386 Ry
     Harris-Foulkes estimate   =    -920.56930914 Ry
     estimated scf accuracy    <       0.85283417 Ry

     total magnetization       =     1.00 Bohr mag/cell
     absolute magnetization    =     2.16 Bohr mag/cell

     iteration #  6     ecut=    55.00 Ry     beta=0.70
     Davidson diagonalization with overlap
     ethr =  1.96E-04,  avg # of iterations =  4.0

     total cpu time spent up to now is       65.0 secs

     total energy              =    -920.44774926 Ry
     Harris-Foulkes estimate   =    -920.47491782 Ry
     estimated scf accuracy    <       0.09231169 Ry

     total magnetization       =     1.00 Bohr mag/cell
     absolute magnetization    =     1.95 Bohr mag/cell

     iteration #  7     ecut=    55.00 Ry     beta=0.70
     Davidson diagonalization with overlap
     ethr =  3.24E-05,  avg # of iterations =  7.5

     total cpu time spent up to now is       74.4 secs

     total energy              =    -920.45528660 Ry
     Harris-Foulkes estimate   =    -920.45995939 Ry
     estimated scf accuracy    <       0.02073241 Ry

     total magnetization       =     1.00 Bohr mag/cell
     absolute magnetization    =     1.62 Bohr mag/cell

     iteration #  8     ecut=    55.00 Ry     beta=0.70
     Davidson diagonalization with overlap
     ethr =  7.27E-06,  avg # of iterations =  5.5

     total cpu time spent up to now is       84.8 secs

     total energy              =    -920.45891336 Ry
     Harris-Foulkes estimate   =    -920.45922077 Ry
     estimated scf accuracy    <       0.00271550 Ry

     total magnetization       =     1.00 Bohr mag/cell
     absolute magnetization    =     1.26 Bohr mag/cell

     iteration #  9     ecut=    55.00 Ry     beta=0.70
     Davidson diagonalization with overlap
     ethr =  9.53E-07,  avg # of iterations = 13.0

     total cpu time spent up to now is       97.6 secs

     total energy              =    -920.45954817 Ry
     Harris-Foulkes estimate   =    -920.45955105 Ry
     estimated scf accuracy    <       0.00055398 Ry

     total magnetization       =     1.00 Bohr mag/cell
     absolute magnetization    =     1.19 Bohr mag/cell

     iteration # 10     ecut=    55.00 Ry     beta=0.70
     Davidson diagonalization with overlap
     ethr =  1.94E-07,  avg # of iterations =  3.5

     total cpu time spent up to now is      107.7 secs

     total energy              =    -920.45975876 Ry
     Harris-Foulkes estimate   =    -920.45971649 Ry
     estimated scf accuracy    <       0.00009288 Ry

     total magnetization       =     1.00 Bohr mag/cell
     absolute magnetization    =     1.15 Bohr mag/cell

     iteration # 11     ecut=    55.00 Ry     beta=0.70
     Davidson diagonalization with overlap
     ethr =  3.26E-08,  avg # of iterations =  3.5

     total cpu time spent up to now is      117.3 secs

     total energy              =    -920.45980413 Ry
     Harris-Foulkes estimate   =    -920.45978892 Ry
     estimated scf accuracy    <       0.00002188 Ry

     total magnetization       =     1.00 Bohr mag/cell
     absolute magnetization    =     1.15 Bohr mag/cell

     iteration # 12     ecut=    55.00 Ry     beta=0.70
     Davidson diagonalization with overlap
     ethr =  7.68E-09,  avg # of iterations =  3.5

     total cpu time spent up to now is      127.7 secs

     total energy              =    -920.45981740 Ry
     Harris-Foulkes estimate   =    -920.45981400 Ry
     estimated scf accuracy    <       0.00000688 Ry

     total magnetization       =     1.00 Bohr mag/cell
     absolute magnetization    =     1.16 Bohr mag/cell

     iteration # 13     ecut=    55.00 Ry     beta=0.70
     Davidson diagonalization with overlap
     ethr =  2.42E-09,  avg # of iterations =  4.0

     total cpu time spent up to now is      138.6 secs

     total energy              =    -920.45982168 Ry
     Harris-Foulkes estimate   =    -920.45982241 Ry
     estimated scf accuracy    <       0.00000523 Ry

     total magnetization       =     1.00 Bohr mag/cell
     absolute magnetization    =     1.17 Bohr mag/cell

     iteration # 14     ecut=    55.00 Ry     beta=0.70
     Davidson diagonalization with overlap
     ethr =  1.83E-09,  avg # of iterations =  3.5
 
     Magnetic moment per site:
     atom:    1    charge:    0.8020    magn:    0.0004    constr:    0.0000
     atom:    2    charge:    0.8151    magn:    0.0013    constr:    0.0000
     atom:    3    charge:    0.8254    magn:    0.0000    constr:    0.0000
     atom:    4    charge:    0.8227    magn:    0.0004    constr:    0.0000
     atom:    5    charge:    0.8184    magn:    0.0002    constr:    0.0000
     atom:    6    charge:    0.8121    magn:    0.0014    constr:    0.0000
     atom:    7    charge:    0.8093    magn:    0.0004    constr:    0.0000
     atom:    8    charge:    0.7810    magn:    0.0024    constr:    0.0000
     atom:    9    charge:    0.8297    magn:    0.0064    constr:    0.0000
     atom:   10    charge:    0.8308    magn:    0.0040    constr:    0.0000
     atom:   11    charge:    0.8234    magn:    0.0014    constr:    0.0000
     atom:   12    charge:    0.8184    magn:    0.0002    constr:    0.0000
     atom:   13    charge:    0.8157    magn:    0.0002    constr:    0.0000
     atom:   14    charge:    0.7985    magn:    0.0043    constr:    0.0000
     atom:   15    charge:    0.7267    magn:    0.0687    constr:    0.0000
     atom:   16    charge:    0.8555    magn:    0.0171    constr:    0.0000
     atom:   17    charge:    0.8318    magn:    0.0040    constr:    0.0000
     atom:   18    charge:    0.8222    magn:    0.0004    constr:    0.0000
     atom:   19    charge:    0.8287    magn:    0.0003    constr:    0.0000
     atom:   20    charge:    0.8514    magn:    0.0022    constr:    0.0000
     atom:   21    charge:    2.2816    magn:    0.0250    constr:    0.0000
     atom:   22    charge:    0.7266    magn:    0.0686    constr:    0.0000
     atom:   23    charge:    0.8299    magn:    0.0064    constr:    0.0000
     atom:   24    charge:    0.8265    magn:    0.0000    constr:    0.0000
     atom:   25    charge:    0.8238    magn:   -0.0000    constr:    0.0000
     atom:   26    charge:    0.8380    magn:    0.0005    constr:    0.0000
     atom:   27    charge:    0.8510    magn:    0.0022    constr:    0.0000
     atom:   28    charge:    0.7984    magn:    0.0042    constr:    0.0000
     atom:   29    charge:    0.7821    magn:    0.0024    constr:    0.0000
     atom:   30    charge:    0.8150    magn:    0.0013    constr:    0.0000
     atom:   31    charge:    0.8158    magn:    0.0022    constr:    0.0000
     atom:   32    charge:    0.8239    magn:   -0.0000    constr:    0.0000
     atom:   33    charge:    0.8283    magn:    0.0003    constr:    0.0000
     atom:   34    charge:    0.8149    magn:    0.0002    constr:    0.0000
     atom:   35    charge:    0.8097    magn:    0.0004    constr:    0.0000
     atom:   36    charge:    0.8008    magn:    0.0004    constr:    0.0000
     atom:   37    charge:    2.3651    magn:   -0.0006    constr:    0.0000
     atom:   38    charge:    2.3659    magn:    0.0019    constr:    0.0000
     atom:   39    charge:    2.3715    magn:    0.0001    constr:    0.0000
     atom:   40    charge:    2.3650    magn:   -0.0003    constr:    0.0000
     atom:   41    charge:    2.3594    magn:   -0.0003    constr:    0.0000
     atom:   42    charge:    2.3575    magn:   -0.0005    constr:    0.0000
     atom:   43    charge:    2.3498    magn:   -0.0008    constr:    0.0000
     atom:   44    charge:    2.3625    magn:    0.0020    constr:    0.0000
     atom:   45    charge:    2.3742    magn:   -0.0019    constr:    0.0000
     atom:   46    charge:    2.3732    magn:   -0.0008    constr:    0.0000
     atom:   47    charge:    2.3678    magn:   -0.0002    constr:    0.0000
     atom:   48    charge:    2.3602    magn:   -0.0003    constr:    0.0000
     atom:   49    charge:    2.3527    magn:   -0.0015    constr:    0.0000
     atom:   50    charge:    2.3143    magn:   -0.0019    constr:    0.0000
     atom:   51    charge:    2.3785    magn:   -0.0066    constr:    0.0000
     atom:   52    charge:    2.3886    magn:   -0.0038    constr:    0.0000
     atom:   53    charge:    2.3772    magn:   -0.0008    constr:    0.0000
     atom:   54    charge:    2.3634    magn:   -0.0003    constr:    0.0000
     atom:   55    charge:    2.3775    magn:    0.0005    constr:    0.0000
     atom:   56    charge:    2.3396    magn:    0.0001    constr:    0.0000
     atom:   57    charge:    2.3797    magn:   -0.0066    constr:    0.0000
     atom:   58    charge:    2.3717    magn:   -0.0019    constr:    0.0000
     atom:   59    charge:    2.3714    magn:    0.0001    constr:    0.0000
     atom:   60    charge:    2.3740    magn:    0.0003    constr:    0.0000
     atom:   61    charge:    2.3894    magn:    0.0010    constr:    0.0000
     atom:   62    charge:    2.3426    magn:    0.0001    constr:    0.0000
     atom:   63    charge:    2.3133    magn:   -0.0018    constr:    0.0000
     atom:   64    charge:    2.3651    magn:    0.0020    constr:    0.0000
     atom:   65    charge:    2.3705    magn:    0.0019    constr:    0.0000
     atom:   66    charge:    2.3698    magn:   -0.0002    constr:    0.0000
     atom:   67    charge:    2.3777    magn:    0.0003    constr:    0.0000
     atom:   68    charge:    2.3747    magn:    0.0005    constr:    0.0000
     atom:   69    charge:    2.3495    magn:   -0.0015    constr:    0.0000
     atom:   70    charge:    2.3526    magn:   -0.0008    constr:    0.0000
     atom:   71    charge:    2.3673    magn:   -0.0006    constr:    0.0000

     total cpu time spent up to now is      148.1 secs

     End of self-consistent calculation

 ------ SPIN UP ------------


          k = 0.0000 0.0000 0.0000 (182351 PWs)   bands (ev):

   -26.2846 -22.1233 -21.8755 -21.4357 -21.3055 -21.2233 -21.0920 -20.9506
   -20.6346 -20.5127 -20.3543 -20.1720 -20.1596 -20.1134 -19.9943 -19.8466
   -19.7148 -19.6816 -19.5269 -19.4120 -19.2032 -19.0026 -18.9682 -18.9051
   -18.8751 -18.8133 -18.7301 -18.6396 -18.6379 -18.5889 -18.5325 -18.4076
   -18.3696 -18.1657 -17.7770 -16.2440 -13.8999 -13.5938 -13.1298 -12.8849
   -12.7092 -12.4862 -12.3300 -12.3062 -12.2799 -12.1594 -12.1335 -12.0382
   -12.0356 -12.0180 -11.8743 -11.8585 -11.6083 -11.4296 -11.3508 -11.2308
   -11.0765 -11.0204 -10.8613 -10.8595 -10.8140 -10.4871 -10.2972 -10.0289
   -10.0099  -9.8302  -9.8102  -9.6682  -9.6457  -9.5755  -9.5459  -9.4616
    -9.4038  -9.3674  -9.3068  -9.2920  -9.2918  -9.2537  -8.9600  -8.9233
    -8.8699  -8.8242  -8.7817  -8.6055  -8.4893  -8.4493  -8.4483  -8.3548
    -8.2840  -8.1970  -8.1160  -8.0906  -8.0552  -8.0041  -7.9761  -7.9007
    -7.8377  -7.7879  -7.6984  -7.6851  -7.6470  -7.5258  -7.4881  -7.4810
    -7.4149  -7.3483  -7.2059  -7.2046  -7.1811  -7.1368  -6.9346  -6.8970
    -6.7922  -6.7858  -6.7377  -6.6174  -6.6144  -6.5236  -6.3467  -6.3389
    -6.1598  -6.1344  -6.0713  -5.9087  -5.6281  -5.5952  -5.5246  -5.4605
    -5.4009  -5.3052  -5.2507  -5.2415  -5.1820  -5.0832  -5.0330  -4.9640
    -4.9632  -4.8512  -4.6583  -4.2823  -4.0104  -3.7735  -2.5130  -0.4128
     0.3355   0.5226   0.5245   0.6037   0.6083   0.8890   0.9987

 ------ SPIN DOWN ----------


          k = 0.0000 0.0000 0.0000 (182351 PWs)   bands (ev):

   -26.2514 -22.1180 -21.8727 -21.4333 -21.3038 -21.2207 -21.0885 -20.9474
   -20.6252 -20.5104 -20.3520 -20.1690 -20.1547 -20.1116 -19.9923 -19.8433
   -19.7086 -19.6770 -19.5185 -19.4063 -19.1990 -19.0014 -18.9582 -18.9037
   -18.8744 -18.8124 -18.7279 -18.6369 -18.6347 -18.5879 -18.5255 -18.4015
   -18.3650 -18.1625 -17.7716 -16.2204 -13.8891 -13.5881 -13.1272 -12.8776
   -12.6994 -12.4826 -12.3263 -12.3020 -12.2746 -12.1572 -12.1152 -12.0340
   -12.0237 -12.0143 -11.8683 -11.8460 -11.5956 -11.4226 -11.3191 -11.2239
   -11.0620 -11.0150 -10.8309 -10.8000 -10.7938 -10.4701 -10.2632 -10.0208
   -10.0074  -9.8278  -9.8048  -9.6598  -9.6425  -9.5683  -9.5440  -9.4471
    -9.3979  -9.3563  -9.3019  -9.2802  -9.2776  -9.2348  -8.9435  -8.9147
    -8.8621  -8.8145  -8.7578  -8.5957  -8.4727  -8.4429  -8.4217  -8.3419
    -8.2746  -8.1945  -8.1112  -8.0860  -8.0534  -8.0023  -7.9435  -7.8956
    -7.7880  -7.7865  -7.6876  -7.6829  -7.6420  -7.5222  -7.4784  -7.4757
    -7.4104  -7.3359  -7.1942  -7.1929  -7.1545  -7.1272  -6.9211  -6.8879
    -6.7851  -6.7714  -6.7243  -6.6126  -6.5906  -6.4866  -6.3460  -6.2692
    -6.1537  -6.1242  -6.0342  -5.8969  -5.5911  -5.5684  -5.5047  -5.4318
    -5.3924  -5.3009  -5.2465  -5.2354  -5.1765  -5.0745  -5.0149  -4.9514
    -4.9374  -4.8368  -4.6039  -4.2496  -3.9825  -3.5412  -2.3816   0.3652
     0.4105   0.5427   0.5480   0.6392   0.6443   0.9474   1.0222

     highest occupied, lowest unoccupied level (ev):    -3.5412   -2.5130

!    total energy              =    -920.45982328 Ry
     Harris-Foulkes estimate   =    -920.45982336 Ry
     estimated scf accuracy    <       0.00000061 Ry

     The total energy is the sum of the following terms:

     one-electron contribution =   -7782.76202097 Ry
     hartree contribution      =    3943.42655259 Ry
     xc contribution           =    -262.23499020 Ry
     ewald contribution        =    3181.11063529 Ry

     total magnetization       =     1.00 Bohr mag/cell
     absolute magnetization    =     1.17 Bohr mag/cell

     convergence has been achieved in  14 iterations

     Writing output data file BN.save
 
     init_run     :      8.04s CPU      8.44s WALL (       1 calls)
     electrons    :    137.62s CPU    139.26s WALL (       1 calls)

     Called by init_run:
     wfcinit      :      4.31s CPU      4.40s WALL (       1 calls)
     potinit      :      1.27s CPU      1.32s WALL (       1 calls)

     Called by electrons:
     c_bands      :    115.34s CPU    116.47s WALL (      14 calls)
     sum_band     :     14.27s CPU     14.40s WALL (      14 calls)
     v_of_rho     :      5.78s CPU      6.02s WALL (      15 calls)
     mix_rho      :      1.85s CPU      1.94s WALL (      14 calls)

     Called by c_bands:
     init_us_2    :      1.26s CPU      1.29s WALL (      29 calls)
     cegterg      :    108.15s CPU    109.26s WALL (      14 calls)

     Called by sum_band:

     Called by *egterg:
     h_psi        :     81.50s CPU     81.61s WALL (      93 calls)
     g_psi        :      0.30s CPU      0.30s WALL (      78 calls)
     cdiaghg      :      4.81s CPU      5.01s WALL (      92 calls)

     Called by h_psi:
     h_psi:pot    :     80.71s CPU     80.82s WALL (      93 calls)
     h_psi:calbec :     11.25s CPU     11.25s WALL (      93 calls)
     vloc_psi     :     57.67s CPU     57.78s WALL (      93 calls)
     add_vuspsi   :     11.79s CPU     11.79s WALL (      93 calls)

     General routines
     calbec       :     11.25s CPU     11.25s WALL (      93 calls)
     fft          :      2.53s CPU      2.89s WALL (     312 calls)
     fftw         :     51.59s CPU     51.66s WALL (   14612 calls)
 
     Parallel routines
     fft_scatter  :     16.72s CPU     17.05s WALL (   14924 calls)
 
     PWSCF        :  2m29.64s CPU     2m33.76s WALL

 
   This run was terminated on:  22:15:27  28Apr2020            

=------------------------------------------------------------------------------=
   JOB DONE.
=------------------------------------------------------------------------------=
