
     Program PWSCF v.6.1 (svn rev. 13369) starts on 12May2020 at 10:31:38 

     This program is part of the open-source Quantum ESPRESSO suite
     for quantum simulation of materials; please cite
         "P. Giannozzi et al., J. Phys.:Condens. Matter 21 395502 (2009);
          URL http://www.quantum-espresso.org", 
     in publications or presentations arising from this work. More details at
     http://www.quantum-espresso.org/quote

     Parallel version (MPI), running on    96 processors
     K-points division:     npool     =       6
     R & G space division:  proc/nbgrp/npool/nimage =      16
     Reading input from scf.in
Warning: card &IONS ignored
Warning: card / ignored

     Current dimensions of program PWSCF are:
     Max number of different atomic species (ntypx) = 10
     Max number of k-points (npk) =  40000
     Max angular momentum in pseudopotentials (lmaxx) =  3

     Subspace diagonalization in iterative solution of the eigenvalue problem:
     a serial algorithm will be used

 
     Parallelization info
     --------------------
     sticks:   dense  smooth     PW     G-vecs:    dense   smooth      PW
     Min         252     252     67                12125    12125    1669
     Max         254     254     68                12129    12129    1672
     Sum        4049    4049   1085               194039   194039   26745
 


     bravais-lattice index     =            1
     lattice parameter (alat)  =      13.4862  a.u.
     unit-cell volume          =    2452.8358 (a.u.)^3
     number of atoms/cell      =           63
     number of atomic types    =            2
     number of electrons       =       254.00
     number of Kohn-Sham states=          152
     kinetic-energy cutoff     =      70.0000  Ry
     charge density cutoff     =     280.0000  Ry
     convergence threshold     =      1.0E-06
     mixing beta               =       0.5000
     number of iterations used =            8  plain     mixing
     Exchange-correlation      = PBE ( 1  4  3  4 0 0)

     celldm(1)=  13.486197  celldm(2)=   0.000000  celldm(3)=   0.000000
     celldm(4)=   0.000000  celldm(5)=   0.000000  celldm(6)=   0.000000

     crystal axes: (cart. coord. in units of alat)
               a(1) = (   1.000000   0.000000   0.000000 )  
               a(2) = (   0.000000   1.000000   0.000000 )  
               a(3) = (   0.000000   0.000000   1.000000 )  

     reciprocal axes: (cart. coord. in units 2 pi/alat)
               b(1) = (  1.000000  0.000000  0.000000 )  
               b(2) = (  0.000000  1.000000  0.000000 )  
               b(3) = (  0.000000  0.000000  1.000000 )  


     PseudoPot. # 1 for C  read from file:
     /home/tjsmart/Pseudo/C_ONCV_PBE-1.0.upf
     MD5 check sum: 72b63e32b2fd29504de26a4901699f60
     Pseudo is Norm-conserving, Zval =  4.0
     Generated using ONCVPSP code by D. R. Hamann
     Using radial grid of 1248 points,  4 beta functions with: 
                l(1) =   0
                l(2) =   0
                l(3) =   1
                l(4) =   1

     PseudoPot. # 2 for N  read from file:
     /home/tjsmart/Pseudo/N_ONCV_PBE-1.0.upf
     MD5 check sum: 09890da6b2972017450f7114a6086fad
     Pseudo is Norm-conserving, Zval =  5.0
     Generated using ONCVPSP code by D. R. Hamann
     Using radial grid of 1058 points,  4 beta functions with: 
                l(1) =   0
                l(2) =   0
                l(3) =   1
                l(4) =   1

     atomic species   valence    mass     pseudopotential
        C              4.00    12.01110     C ( 1.00)
        N              5.00    14.00670     N ( 1.00)

     Starting magnetic structure 
     atomic species   magnetization
        C            0.500
        N            0.500

      6 Sym. Ops. (no inversion) found


                                    s                        frac. trans.

      isym =  1     identity                                     

 cryst.   s( 1) = (     1          0          0      )
                  (     0          1          0      )
                  (     0          0          1      )

 cart.    s( 1) = (  1.0000000  0.0000000  0.0000000 )
                  (  0.0000000  1.0000000  0.0000000 )
                  (  0.0000000  0.0000000  1.0000000 )


      isym =  2     120 deg rotation - cart. axis [-1,-1,-1]     

 cryst.   s( 2) = (     0          0          1      )
                  (     1          0          0      )
                  (     0          1          0      )

 cart.    s( 2) = (  0.0000000  1.0000000  0.0000000 )
                  (  0.0000000  0.0000000  1.0000000 )
                  (  1.0000000  0.0000000  0.0000000 )


      isym =  3     120 deg rotation - cart. axis [1,1,1]        

 cryst.   s( 3) = (     0          1          0      )
                  (     0          0          1      )
                  (     1          0          0      )

 cart.    s( 3) = (  0.0000000  0.0000000  1.0000000 )
                  (  1.0000000  0.0000000  0.0000000 )
                  (  0.0000000  1.0000000  0.0000000 )


      isym =  4     inv. 180 deg rotation - cart. axis [1,-1,0]  

 cryst.   s( 4) = (     0          1          0      )
                  (     1          0          0      )
                  (     0          0          1      )

 cart.    s( 4) = (  0.0000000  1.0000000  0.0000000 )
                  (  1.0000000  0.0000000  0.0000000 )
                  (  0.0000000  0.0000000  1.0000000 )


      isym =  5     inv. 180 deg rotation - cart. axis [-1,0,1]  

 cryst.   s( 5) = (     0          0          1      )
                  (     0          1          0      )
                  (     1          0          0      )

 cart.    s( 5) = (  0.0000000  0.0000000  1.0000000 )
                  (  0.0000000  1.0000000  0.0000000 )
                  (  1.0000000  0.0000000  0.0000000 )


      isym =  6     inv. 180 deg rotation - cart. axis [0,1,-1]  

 cryst.   s( 6) = (     1          0          0      )
                  (     0          0          1      )
                  (     0          1          0      )

 cart.    s( 6) = (  1.0000000  0.0000000  0.0000000 )
                  (  0.0000000  0.0000000  1.0000000 )
                  (  0.0000000  1.0000000  0.0000000 )


     point group C_3v (3m)  
     there are  3 classes
     the character table:

       E     2C3   3s_v 
A_1    1.00  1.00  1.00
A_2    1.00  1.00 -1.00
E      2.00 -1.00  0.00

     the symmetry operations in each class and the name of the first element:

     E        1
          identity                                               
     2C3      2    3
          120 deg rotation - cart. axis [-1,-1,-1]               
     3s_v     4    5    6
          inv. 180 deg rotation - cart. axis [1,-1,0]            

   Cartesian axes

     site n.     atom                  positions (alat units)
         1           C   tau(   1) = (   0.3757796   0.3757796   0.8735742  )
         2           C   tau(   2) = (   0.5002647   0.0004361   0.0004361  )
         3           C   tau(   3) = (   0.4999805  -0.0004371   0.4999805  )
         4           C   tau(   4) = (   0.0004361   0.5002647   0.0004361  )
         5           C   tau(   5) = (  -0.0004371   0.4999805   0.4999805  )
         6           C   tau(   6) = (  -0.0001223  -0.0001223  -0.0001223  )
         7           C   tau(   7) = (   0.0004361   0.0004361   0.5002647  )
         8           C   tau(   8) = (   0.2504569   0.2504569  -0.0008989  )
         9           C   tau(   9) = (   0.2514017   0.2514017   0.4963701  )
        10           C   tau(  10) = (   0.2501495   0.7491355   0.0008441  )
        11           C   tau(  11) = (   0.2511009   0.7486260   0.5021133  )
        12           C   tau(  12) = (   0.7491355   0.2501495   0.0008441  )
        13           C   tau(  13) = (   0.7486260   0.2511009   0.5021133  )
        14           C   tau(  14) = (   0.7495082   0.7495082  -0.0008518  )
        15           C   tau(  15) = (   0.4999805   0.4999805  -0.0004371  )
        16           C   tau(  16) = (   0.7485540   0.7485540   0.4983137  )
        17           C   tau(  17) = (   0.5021133   0.2511009   0.7486260  )
        18           C   tau(  18) = (   0.5021133   0.7486260   0.2511009  )
        19           C   tau(  19) = (   0.4983137   0.7485540   0.7485540  )
        20           C   tau(  20) = (  -0.0008989   0.2504569   0.2504569  )
        21           C   tau(  21) = (   0.0008441   0.2501495   0.7491355  )
        22           C   tau(  22) = (   0.0008441   0.7491355   0.2501495  )
        23           C   tau(  23) = (  -0.0008518   0.7495082   0.7495082  )
        24           C   tau(  24) = (   0.2514017   0.4963701   0.2514017  )
        25           C   tau(  25) = (   0.2511009   0.5021133   0.7486260  )
        26           C   tau(  26) = (   0.2504569  -0.0008989   0.2504569  )
        27           C   tau(  27) = (   0.2501495   0.0008441   0.7491355  )
        28           C   tau(  28) = (   0.7486260   0.5021133   0.2511009  )
        29           C   tau(  29) = (   0.7485540   0.4983137   0.7485540  )
        30           C   tau(  30) = (   0.4963701   0.2514017   0.2514017  )
        31           C   tau(  31) = (   0.7491355   0.0008441   0.2501495  )
        32           C   tau(  32) = (   0.6242333   0.8736477   0.6242333  )
        33           C   tau(  33) = (   0.6362459   0.3623897   0.6362459  )
        34           C   tau(  34) = (   0.3756851   0.8762217   0.8762217  )
        35           C   tau(  35) = (   0.3757796   0.8735742   0.3757796  )
        36           C   tau(  36) = (   0.8762217   0.3756851   0.8762217  )
        37           C   tau(  37) = (   0.8735742   0.3757796   0.3757796  )
        38           C   tau(  38) = (   0.8744853   0.8744853   0.8744853  )
        39           C   tau(  39) = (   0.8762217   0.8762217   0.3756851  )
        40           C   tau(  40) = (   0.1253700   0.1253700   0.8744275  )
        41           C   tau(  41) = (   0.1245712   0.1245712   0.3748732  )
        42           C   tau(  42) = (   0.1235909   0.6243232   0.8761514  )
        43           C   tau(  43) = (   0.1265754   0.6234742   0.3763860  )
        44           C   tau(  44) = (   0.6243232   0.1235909   0.8761514  )
        45           C   tau(  45) = (   0.6234742   0.1265754   0.3763860  )
        46           C   tau(  46) = (   0.6243232   0.8761514   0.1235909  )
        47           C   tau(  47) = (   0.6242333   0.6242333   0.8736477  )
        48           C   tau(  48) = (   0.3748732   0.1245712   0.1245712  )
        49           C   tau(  49) = (   0.3763860   0.1265754   0.6234742  )
        50           C   tau(  50) = (   0.3763860   0.6234742   0.1265754  )
        51           C   tau(  51) = (   0.3623897   0.6362459   0.6362459  )
        52           C   tau(  52) = (   0.8744275   0.1253700   0.1253700  )
        53           C   tau(  53) = (   0.8761514   0.1235909   0.6243232  )
        54           C   tau(  54) = (   0.8761514   0.6243232   0.1235909  )
        55           C   tau(  55) = (   0.8736477   0.6242333   0.6242333  )
        56           C   tau(  56) = (   0.1245712   0.3748732   0.1245712  )
        57           C   tau(  57) = (   0.1265754   0.3763860   0.6234742  )
        58           C   tau(  58) = (   0.1253700   0.8744275   0.1253700  )
        59           C   tau(  59) = (   0.1235909   0.8761514   0.6243232  )
        60           C   tau(  60) = (   0.6234742   0.3763860   0.1265754  )
        61           C   tau(  61) = (   0.6362459   0.6362459   0.3623897  )
        62           C   tau(  62) = (   0.7495082  -0.0008518   0.7495082  )
        63           N   tau(  63) = (   0.3678200   0.3678200   0.3678200  )

   Crystallographic axes

     site n.     atom                  positions (cryst. coord.)
         1           C   tau(   1) = (  0.3757796  0.3757796  0.8735742  )
         2           C   tau(   2) = (  0.5002647  0.0004361  0.0004361  )
         3           C   tau(   3) = (  0.4999805 -0.0004371  0.4999805  )
         4           C   tau(   4) = (  0.0004361  0.5002647  0.0004361  )
         5           C   tau(   5) = ( -0.0004371  0.4999805  0.4999805  )
         6           C   tau(   6) = ( -0.0001223 -0.0001223 -0.0001223  )
         7           C   tau(   7) = (  0.0004361  0.0004361  0.5002647  )
         8           C   tau(   8) = (  0.2504569  0.2504569 -0.0008989  )
         9           C   tau(   9) = (  0.2514017  0.2514017  0.4963701  )
        10           C   tau(  10) = (  0.2501495  0.7491355  0.0008441  )
        11           C   tau(  11) = (  0.2511009  0.7486260  0.5021133  )
        12           C   tau(  12) = (  0.7491355  0.2501495  0.0008441  )
        13           C   tau(  13) = (  0.7486260  0.2511009  0.5021133  )
        14           C   tau(  14) = (  0.7495082  0.7495082 -0.0008518  )
        15           C   tau(  15) = (  0.4999805  0.4999805 -0.0004371  )
        16           C   tau(  16) = (  0.7485540  0.7485540  0.4983137  )
        17           C   tau(  17) = (  0.5021133  0.2511009  0.7486260  )
        18           C   tau(  18) = (  0.5021133  0.7486260  0.2511009  )
        19           C   tau(  19) = (  0.4983137  0.7485540  0.7485540  )
        20           C   tau(  20) = ( -0.0008989  0.2504569  0.2504569  )
        21           C   tau(  21) = (  0.0008441  0.2501495  0.7491355  )
        22           C   tau(  22) = (  0.0008441  0.7491355  0.2501495  )
        23           C   tau(  23) = ( -0.0008518  0.7495082  0.7495082  )
        24           C   tau(  24) = (  0.2514017  0.4963701  0.2514017  )
        25           C   tau(  25) = (  0.2511009  0.5021133  0.7486260  )
        26           C   tau(  26) = (  0.2504569 -0.0008989  0.2504569  )
        27           C   tau(  27) = (  0.2501495  0.0008441  0.7491355  )
        28           C   tau(  28) = (  0.7486260  0.5021133  0.2511009  )
        29           C   tau(  29) = (  0.7485540  0.4983137  0.7485540  )
        30           C   tau(  30) = (  0.4963701  0.2514017  0.2514017  )
        31           C   tau(  31) = (  0.7491355  0.0008441  0.2501495  )
        32           C   tau(  32) = (  0.6242333  0.8736477  0.6242333  )
        33           C   tau(  33) = (  0.6362459  0.3623897  0.6362459  )
        34           C   tau(  34) = (  0.3756851  0.8762217  0.8762217  )
        35           C   tau(  35) = (  0.3757796  0.8735742  0.3757796  )
        36           C   tau(  36) = (  0.8762217  0.3756851  0.8762217  )
        37           C   tau(  37) = (  0.8735742  0.3757796  0.3757796  )
        38           C   tau(  38) = (  0.8744853  0.8744853  0.8744853  )
        39           C   tau(  39) = (  0.8762217  0.8762217  0.3756851  )
        40           C   tau(  40) = (  0.1253700  0.1253700  0.8744275  )
        41           C   tau(  41) = (  0.1245712  0.1245712  0.3748732  )
        42           C   tau(  42) = (  0.1235909  0.6243232  0.8761514  )
        43           C   tau(  43) = (  0.1265754  0.6234742  0.3763860  )
        44           C   tau(  44) = (  0.6243232  0.1235909  0.8761514  )
        45           C   tau(  45) = (  0.6234742  0.1265754  0.3763860  )
        46           C   tau(  46) = (  0.6243232  0.8761514  0.1235909  )
        47           C   tau(  47) = (  0.6242333  0.6242333  0.8736477  )
        48           C   tau(  48) = (  0.3748732  0.1245712  0.1245712  )
        49           C   tau(  49) = (  0.3763860  0.1265754  0.6234742  )
        50           C   tau(  50) = (  0.3763860  0.6234742  0.1265754  )
        51           C   tau(  51) = (  0.3623897  0.6362459  0.6362459  )
        52           C   tau(  52) = (  0.8744275  0.1253700  0.1253700  )
        53           C   tau(  53) = (  0.8761514  0.1235909  0.6243232  )
        54           C   tau(  54) = (  0.8761514  0.6243232  0.1235909  )
        55           C   tau(  55) = (  0.8736477  0.6242333  0.6242333  )
        56           C   tau(  56) = (  0.1245712  0.3748732  0.1245712  )
        57           C   tau(  57) = (  0.1265754  0.3763860  0.6234742  )
        58           C   tau(  58) = (  0.1253700  0.8744275  0.1253700  )
        59           C   tau(  59) = (  0.1235909  0.8761514  0.6243232  )
        60           C   tau(  60) = (  0.6234742  0.3763860  0.1265754  )
        61           C   tau(  61) = (  0.6362459  0.6362459  0.3623897  )
        62           C   tau(  62) = (  0.7495082 -0.0008518  0.7495082  )
        63           N   tau(  63) = (  0.3678200  0.3678200  0.3678200  )

     number of k points=     6
                       cart. coord. in units 2pi/alat
        k(    1) = (   0.0000000   0.0000000   0.0000000), wk =   0.0370370
        k(    2) = (   0.0000000   0.0000000   0.3333333), wk =   0.2222222
        k(    3) = (   0.0000000   0.3333333   0.3333333), wk =   0.2222222
        k(    4) = (   0.3333333   0.3333333   0.3333333), wk =   0.0740741
        k(    5) = (  -0.3333333   0.0000000   0.3333333), wk =   0.2222222
        k(    6) = (   0.3333333  -0.3333333   0.3333333), wk =   0.2222222

                       cryst. coord.
        k(    1) = (   0.0000000   0.0000000   0.0000000), wk =   0.0370370
        k(    2) = (   0.0000000   0.0000000   0.3333333), wk =   0.2222222
        k(    3) = (   0.0000000   0.3333333   0.3333333), wk =   0.2222222
        k(    4) = (   0.3333333   0.3333333   0.3333333), wk =   0.0740741
        k(    5) = (  -0.3333333   0.0000000   0.3333333), wk =   0.2222222
        k(    6) = (   0.3333333  -0.3333333   0.3333333), wk =   0.2222222

     Dense  grid:   194039 G-vectors     FFT dimensions: (  72,  72,  72)

     Occupations read from input 

      Spin-up

        1.0000   1.0000   1.0000   1.0000   1.0000   1.0000   1.0000   1.0000
        1.0000   1.0000   1.0000   1.0000   1.0000   1.0000   1.0000   1.0000
        1.0000   1.0000   1.0000   1.0000   1.0000   1.0000   1.0000   1.0000
        1.0000   1.0000   1.0000   1.0000   1.0000   1.0000   1.0000   1.0000
        1.0000   1.0000   1.0000   1.0000   1.0000   1.0000   1.0000   1.0000
        1.0000   1.0000   1.0000   1.0000   1.0000   1.0000   1.0000   1.0000
        1.0000   1.0000   1.0000   1.0000   1.0000   1.0000   1.0000   1.0000
        1.0000   1.0000   1.0000   1.0000   1.0000   1.0000   1.0000   1.0000
        1.0000   1.0000   1.0000   1.0000   1.0000   1.0000   1.0000   1.0000
        1.0000   1.0000   1.0000   1.0000   1.0000   1.0000   1.0000   1.0000
        1.0000   1.0000   1.0000   1.0000   1.0000   1.0000   1.0000   1.0000
        1.0000   1.0000   1.0000   1.0000   1.0000   1.0000   1.0000   1.0000
        1.0000   1.0000   1.0000   1.0000   1.0000   1.0000   1.0000   1.0000
        1.0000   1.0000   1.0000   1.0000   1.0000   1.0000   1.0000   1.0000
        1.0000   1.0000   1.0000   1.0000   1.0000   1.0000   1.0000   1.0000
        1.0000   1.0000   1.0000   1.0000   1.0000   1.0000   1.0000   1.0000
        0.0000   0.0000   0.0000   0.0000   0.0000   0.0000   0.0000   0.0000
        0.0000   0.0000   0.0000   0.0000   0.0000   0.0000   0.0000   0.0000
        0.0000   0.0000   0.0000   0.0000   0.0000   0.0000   0.0000   0.0000

      Spin-down

        1.0000   1.0000   1.0000   1.0000   1.0000   1.0000   1.0000   1.0000
        1.0000   1.0000   1.0000   1.0000   1.0000   1.0000   1.0000   1.0000
        1.0000   1.0000   1.0000   1.0000   1.0000   1.0000   1.0000   1.0000
        1.0000   1.0000   1.0000   1.0000   1.0000   1.0000   1.0000   1.0000
        1.0000   1.0000   1.0000   1.0000   1.0000   1.0000   1.0000   1.0000
        1.0000   1.0000   1.0000   1.0000   1.0000   1.0000   1.0000   1.0000
        1.0000   1.0000   1.0000   1.0000   1.0000   1.0000   1.0000   1.0000
        1.0000   1.0000   1.0000   1.0000   1.0000   1.0000   1.0000   1.0000
        1.0000   1.0000   1.0000   1.0000   1.0000   1.0000   1.0000   1.0000
        1.0000   1.0000   1.0000   1.0000   1.0000   1.0000   1.0000   1.0000
        1.0000   1.0000   1.0000   1.0000   1.0000   1.0000   1.0000   1.0000
        1.0000   1.0000   1.0000   1.0000   1.0000   1.0000   1.0000   1.0000
        1.0000   1.0000   1.0000   1.0000   1.0000   1.0000   1.0000   1.0000
        1.0000   1.0000   1.0000   1.0000   1.0000   1.0000   1.0000   1.0000
        1.0000   1.0000   1.0000   1.0000   1.0000   1.0000   1.0000   1.0000
        1.0000   1.0000   1.0000   1.0000   1.0000   0.0000   1.0000   0.0000
        0.0000   0.0000   0.0000   0.0000   0.0000   0.0000   0.0000   0.0000
        0.0000   0.0000   0.0000   0.0000   0.0000   0.0000   0.0000   0.0000
        0.0000   0.0000   0.0000   0.0000   0.0000   0.0000   0.0000   0.0000

     Estimated max dynamical RAM per process >      60.23MB

     Estimated total allocated dynamical RAM >    5782.56MB
     Generating pointlists ...
     new r_m :   0.0855 (alat units)  1.1537 (a.u.) for type    1
     new r_m :   0.0862 (alat units)  1.1620 (a.u.) for type    2

     Initial potential from superposition of free atoms

     starting charge  252.99722, renormalised to  254.00000
     Starting wfc are  252 randomized atomic wfcs

     total cpu time spent up to now is        3.7 secs

     per-process dynamical memory:    59.5 Mb

     Self-consistent Calculation

     iteration #  1     ecut=    70.00 Ry     beta=0.50
     Davidson diagonalization with overlap
     ethr =  1.00E-02,  avg # of iterations =  3.0

     total cpu time spent up to now is        6.1 secs

     total energy              =    -722.45917266 Ry
     Harris-Foulkes estimate   =    -717.56083066 Ry
     estimated scf accuracy    <       6.66671960 Ry

     total magnetization       =     2.00 Bohr mag/cell
     absolute magnetization    =     3.66 Bohr mag/cell

     iteration #  2     ecut=    70.00 Ry     beta=0.50
     Davidson diagonalization with overlap
     ethr =  2.62E-03,  avg # of iterations =  2.0

     total cpu time spent up to now is        7.5 secs

     total energy              =    -724.29794254 Ry
     Harris-Foulkes estimate   =    -722.83260938 Ry
     estimated scf accuracy    <       1.43641018 Ry

     total magnetization       =     2.00 Bohr mag/cell
     absolute magnetization    =     2.50 Bohr mag/cell

     iteration #  3     ecut=    70.00 Ry     beta=0.50
     Davidson diagonalization with overlap
     ethr =  5.66E-04,  avg # of iterations =  7.3

     total cpu time spent up to now is       10.9 secs

     total energy              =    -724.55185757 Ry
     Harris-Foulkes estimate   =    -724.57975417 Ry
     estimated scf accuracy    <       0.61817763 Ry

     total magnetization       =     2.00 Bohr mag/cell
     absolute magnetization    =     2.14 Bohr mag/cell

     iteration #  4     ecut=    70.00 Ry     beta=0.50
     Davidson diagonalization with overlap
     ethr =  2.43E-04,  avg # of iterations =  6.2

     total cpu time spent up to now is       13.8 secs

     total energy              =    -724.68446479 Ry
     Harris-Foulkes estimate   =    -724.67335914 Ry
     estimated scf accuracy    <       0.02804672 Ry

     total magnetization       =     2.00 Bohr mag/cell
     absolute magnetization    =     2.14 Bohr mag/cell

     iteration #  5     ecut=    70.00 Ry     beta=0.50
     Davidson diagonalization with overlap
     ethr =  1.10E-05,  avg # of iterations =  9.7

     total cpu time spent up to now is       19.0 secs

     total energy              =    -724.69239243 Ry
     Harris-Foulkes estimate   =    -724.69184482 Ry
     estimated scf accuracy    <       0.00533543 Ry

     total magnetization       =     2.00 Bohr mag/cell
     absolute magnetization    =     2.16 Bohr mag/cell

     iteration #  6     ecut=    70.00 Ry     beta=0.50
     Davidson diagonalization with overlap
     ethr =  2.10E-06,  avg # of iterations =  8.1

     total cpu time spent up to now is       23.2 secs

     total energy              =    -724.69347190 Ry
     Harris-Foulkes estimate   =    -724.69352964 Ry
     estimated scf accuracy    <       0.00056187 Ry

     total magnetization       =     2.00 Bohr mag/cell
     absolute magnetization    =     2.17 Bohr mag/cell

     iteration #  7     ecut=    70.00 Ry     beta=0.50
     Davidson diagonalization with overlap
     ethr =  2.21E-07,  avg # of iterations =  3.5

     total cpu time spent up to now is       25.3 secs

     total energy              =    -724.69365766 Ry
     Harris-Foulkes estimate   =    -724.69363716 Ry
     estimated scf accuracy    <       0.00008906 Ry

     total magnetization       =     2.00 Bohr mag/cell
     absolute magnetization    =     2.18 Bohr mag/cell

     iteration #  8     ecut=    70.00 Ry     beta=0.50
     Davidson diagonalization with overlap
     ethr =  3.51E-08,  avg # of iterations =  3.1

     total cpu time spent up to now is       27.3 secs

     total energy              =    -724.69370081 Ry
     Harris-Foulkes estimate   =    -724.69368415 Ry
     estimated scf accuracy    <       0.00001650 Ry

     total magnetization       =     2.00 Bohr mag/cell
     absolute magnetization    =     2.19 Bohr mag/cell

     iteration #  9     ecut=    70.00 Ry     beta=0.50
     Davidson diagonalization with overlap
     ethr =  6.50E-09,  avg # of iterations =  3.8

     total cpu time spent up to now is       29.5 secs

     total energy              =    -724.69371354 Ry
     Harris-Foulkes estimate   =    -724.69370477 Ry
     estimated scf accuracy    <       0.00000478 Ry

     total magnetization       =     2.00 Bohr mag/cell
     absolute magnetization    =     2.20 Bohr mag/cell

     iteration # 10     ecut=    70.00 Ry     beta=0.50
     Davidson diagonalization with overlap
     ethr =  1.88E-09,  avg # of iterations =  4.6
 
     Magnetic moment per site:
     atom:    1    charge:    1.8272    magn:    0.0072    constr:    0.0000
     atom:    2    charge:    1.8478    magn:    0.0084    constr:    0.0000
     atom:    3    charge:    1.8356    magn:   -0.0014    constr:    0.0000
     atom:    4    charge:    1.8478    magn:    0.0084    constr:    0.0000
     atom:    5    charge:    1.8356    magn:   -0.0014    constr:    0.0000
     atom:    6    charge:    1.8250    magn:   -0.0000    constr:    0.0000
     atom:    7    charge:    1.8478    magn:    0.0084    constr:    0.0000
     atom:    8    charge:    1.8286    magn:   -0.0007    constr:    0.0000
     atom:    9    charge:    1.8034    magn:    0.0001    constr:    0.0000
     atom:   10    charge:    1.8234    magn:   -0.0014    constr:    0.0000
     atom:   11    charge:    1.8391    magn:   -0.0031    constr:    0.0000
     atom:   12    charge:    1.8234    magn:   -0.0014    constr:    0.0000
     atom:   13    charge:    1.8391    magn:   -0.0031    constr:    0.0000
     atom:   14    charge:    1.8274    magn:   -0.0016    constr:    0.0000
     atom:   15    charge:    1.8356    magn:   -0.0014    constr:    0.0000
     atom:   16    charge:    1.8341    magn:   -0.0002    constr:    0.0000
     atom:   17    charge:    1.8391    magn:   -0.0031    constr:    0.0000
     atom:   18    charge:    1.8391    magn:   -0.0031    constr:    0.0000
     atom:   19    charge:    1.8341    magn:   -0.0002    constr:    0.0000
     atom:   20    charge:    1.8286    magn:   -0.0007    constr:    0.0000
     atom:   21    charge:    1.8234    magn:   -0.0014    constr:    0.0000
     atom:   22    charge:    1.8234    magn:   -0.0014    constr:    0.0000
     atom:   23    charge:    1.8274    magn:   -0.0016    constr:    0.0000
     atom:   24    charge:    1.8034    magn:    0.0001    constr:    0.0000
     atom:   25    charge:    1.8391    magn:   -0.0031    constr:    0.0000
     atom:   26    charge:    1.8286    magn:   -0.0007    constr:    0.0000
     atom:   27    charge:    1.8234    magn:   -0.0014    constr:    0.0000
     atom:   28    charge:    1.8391    magn:   -0.0031    constr:    0.0000
     atom:   29    charge:    1.8341    magn:   -0.0002    constr:    0.0000
     atom:   30    charge:    1.8034    magn:    0.0001    constr:    0.0000
     atom:   31    charge:    1.8234    magn:   -0.0014    constr:    0.0000
     atom:   32    charge:    1.8285    magn:    0.0061    constr:    0.0000
     atom:   33    charge:    1.8621    magn:    0.2031    constr:    0.0000
     atom:   34    charge:    1.8254    magn:    0.0165    constr:    0.0000
     atom:   35    charge:    1.8272    magn:    0.0072    constr:    0.0000
     atom:   36    charge:    1.8254    magn:    0.0165    constr:    0.0000
     atom:   37    charge:    1.8272    magn:    0.0072    constr:    0.0000
     atom:   38    charge:    1.8319    magn:    0.0044    constr:    0.0000
     atom:   39    charge:    1.8254    magn:    0.0165    constr:    0.0000
     atom:   40    charge:    1.8312    magn:    0.0037    constr:    0.0000
     atom:   41    charge:    1.8348    magn:    0.0086    constr:    0.0000
     atom:   42    charge:    1.8320    magn:    0.0177    constr:    0.0000
     atom:   43    charge:    1.8261    magn:    0.0047    constr:    0.0000
     atom:   44    charge:    1.8320    magn:    0.0177    constr:    0.0000
     atom:   45    charge:    1.8261    magn:    0.0047    constr:    0.0000
     atom:   46    charge:    1.8320    magn:    0.0177    constr:    0.0000
     atom:   47    charge:    1.8285    magn:    0.0061    constr:    0.0000
     atom:   48    charge:    1.8348    magn:    0.0086    constr:    0.0000
     atom:   49    charge:    1.8261    magn:    0.0047    constr:    0.0000
     atom:   50    charge:    1.8261    magn:    0.0047    constr:    0.0000
     atom:   51    charge:    1.8621    magn:    0.2031    constr:    0.0000
     atom:   52    charge:    1.8312    magn:    0.0037    constr:    0.0000
     atom:   53    charge:    1.8320    magn:    0.0177    constr:    0.0000
     atom:   54    charge:    1.8320    magn:    0.0177    constr:    0.0000
     atom:   55    charge:    1.8285    magn:    0.0061    constr:    0.0000
     atom:   56    charge:    1.8348    magn:    0.0086    constr:    0.0000
     atom:   57    charge:    1.8261    magn:    0.0047    constr:    0.0000
     atom:   58    charge:    1.8312    magn:    0.0037    constr:    0.0000
     atom:   59    charge:    1.8320    magn:    0.0177    constr:    0.0000
     atom:   60    charge:    1.8261    magn:    0.0047    constr:    0.0000
     atom:   61    charge:    1.8621    magn:    0.2031    constr:    0.0000
     atom:   62    charge:    1.8274    magn:   -0.0016    constr:    0.0000
     atom:   63    charge:    2.9184    magn:    0.1232    constr:    0.0000

     total cpu time spent up to now is       32.3 secs

     End of self-consistent calculation

 ------ SPIN UP ------------


          k = 0.0000 0.0000 0.0000 ( 24207 PWs)   bands (ev):

    -8.6171  -7.1397  -6.2970  -6.2970  -6.1705  -6.1705  -5.9054  -5.0120
    -4.1553  -4.1553  -4.1355  -4.1355  -4.0373  -4.0373  -4.0180  -3.9693
    -3.8702  -3.8702  -3.3817  -2.9808  -2.6860  -2.6860  -2.1404  -0.4072
    -0.4072  -0.3653  -0.3302  -0.1892   0.1407   0.1407   0.2558   0.2558
     0.3443   0.5746   0.7913   0.7913   0.9575   0.9577   0.9577   1.0123
     1.0123   1.0445   1.3126   1.3126   3.0115   3.8095   3.8095   4.0024
     4.1819   4.1819   4.1892   4.2094   4.2310   4.2310   4.3910   4.3910
     4.4422   4.4422   4.5534   4.6173   4.6224   4.6224   4.6371   4.7185
     4.7185   4.8608   4.9206   4.9206   4.9872   5.1656   5.1656   5.2385
     5.3134   5.3134   5.3568   5.3911   5.3911   5.9826   5.9826   6.0209
     6.5825   6.5825   6.6825   6.9011   6.9701   6.9701   7.4524   8.2506
     8.2506   8.3555   8.4260   8.4260   8.5996   8.5996   8.7516   8.7585
     8.7702   8.7702   8.8368   8.8368   8.8562   9.2229   9.2273   9.2273
     9.6215   9.6215   9.8555   9.8626   9.8626   9.8655   9.8735   9.9186
     9.9186   9.9526   9.9526   9.9530  10.0566  10.0566  10.2629  10.2719
    10.2719  10.5592  12.1632  12.3776  12.3776  13.5903  14.8985  14.8985
    17.2114  17.3117  17.3117  17.4540  17.5196  17.5196  17.7892  17.8758
    17.8758  17.9817  17.9817  18.2989  18.8580  18.8580  18.9217  20.5038
    20.7336  20.7336  20.8026  20.8565  20.8565  20.9518  20.9518  20.9569

     occupation numbers 
     1.0000   1.0000   1.0000   1.0000   1.0000   1.0000   1.0000   1.0000
     1.0000   1.0000   1.0000   1.0000   1.0000   1.0000   1.0000   1.0000
     1.0000   1.0000   1.0000   1.0000   1.0000   1.0000   1.0000   1.0000
     1.0000   1.0000   1.0000   1.0000   1.0000   1.0000   1.0000   1.0000
     1.0000   1.0000   1.0000   1.0000   1.0000   1.0000   1.0000   1.0000
     1.0000   1.0000   1.0000   1.0000   1.0000   1.0000   1.0000   1.0000
     1.0000   1.0000   1.0000   1.0000   1.0000   1.0000   1.0000   1.0000
     1.0000   1.0000   1.0000   1.0000   1.0000   1.0000   1.0000   1.0000
     1.0000   1.0000   1.0000   1.0000   1.0000   1.0000   1.0000   1.0000
     1.0000   1.0000   1.0000   1.0000   1.0000   1.0000   1.0000   1.0000
     1.0000   1.0000   1.0000   1.0000   1.0000   1.0000   1.0000   1.0000
     1.0000   1.0000   1.0000   1.0000   1.0000   1.0000   1.0000   1.0000
     1.0000   1.0000   1.0000   1.0000   1.0000   1.0000   1.0000   1.0000
     1.0000   1.0000   1.0000   1.0000   1.0000   1.0000   1.0000   1.0000
     1.0000   1.0000   1.0000   1.0000   1.0000   1.0000   1.0000   1.0000
     1.0000   1.0000   1.0000   1.0000   1.0000   1.0000   1.0000   1.0000
     0.0000   0.0000   0.0000   0.0000   0.0000   0.0000   0.0000   0.0000
     0.0000   0.0000   0.0000   0.0000   0.0000   0.0000   0.0000   0.0000
     0.0000   0.0000   0.0000   0.0000   0.0000   0.0000   0.0000   0.0000

          k = 0.0000 0.0000 0.3333 ( 24280 PWs)   bands (ev):

    -8.4002  -7.6194  -6.6969  -6.0530  -5.9296  -5.8358  -5.5167  -5.3081
    -5.1770  -5.0108  -4.5380  -4.1477  -3.8368  -3.8146  -3.6975  -3.4465
    -3.2317  -3.1574  -2.9443  -2.6169  -2.5192  -2.3879  -2.3370  -1.8029
    -0.8784  -0.7102  -0.5852  -0.3696   0.1410   0.2300   0.3353   0.3927
     0.4655   0.5420   0.5567   0.6538   0.7280   0.7338   0.9699   1.4530
     1.9671   1.9982   2.1471   2.1975   2.3917   2.4637   2.4676   2.7361
     2.9370   2.9875   3.1485   3.1578   3.8581   3.9336   4.0406   4.0559
     4.2767   4.3346   4.4855   4.5314   5.0348   5.0757   5.1116   5.1899
     5.1904   5.5711   5.5947   5.6973   5.7368   6.0311   6.0814   6.1616
     6.1739   6.3064   6.3768   6.4531   6.4870   6.5763   6.6020   6.7387
     6.7451   6.8778   6.8912   6.9199   7.1253   7.1497   7.1740   7.2543
     7.3801   7.4569   7.6528   7.7595   7.8182   8.0444   8.1213   8.2646
     8.3009   8.4335   8.6247   8.6875   8.7557   9.0610   9.1543   9.3388
     9.3536   9.6123   9.6317   9.7006   9.7755   9.9045   9.9245   9.9326
     9.9510  10.0096  10.0849  10.1067  10.1731  10.2530  10.2700  10.3440
    10.3764  11.0294  11.6773  11.6829  11.9391  13.2979  14.5855  14.7512
    17.1583  17.2826  17.9285  18.2506  18.3305  18.4759  18.5049  18.5877
    18.8073  18.8274  18.9791  19.0594  19.1684  19.7861  19.8360  20.3903
    20.6374  20.6485  20.7719  20.7825  20.8203  20.8299  20.8906  20.9397

     occupation numbers 
     1.0000   1.0000   1.0000   1.0000   1.0000   1.0000   1.0000   1.0000
     1.0000   1.0000   1.0000   1.0000   1.0000   1.0000   1.0000   1.0000
     1.0000   1.0000   1.0000   1.0000   1.0000   1.0000   1.0000   1.0000
     1.0000   1.0000   1.0000   1.0000   1.0000   1.0000   1.0000   1.0000
     1.0000   1.0000   1.0000   1.0000   1.0000   1.0000   1.0000   1.0000
     1.0000   1.0000   1.0000   1.0000   1.0000   1.0000   1.0000   1.0000
     1.0000   1.0000   1.0000   1.0000   1.0000   1.0000   1.0000   1.0000
     1.0000   1.0000   1.0000   1.0000   1.0000   1.0000   1.0000   1.0000
     1.0000   1.0000   1.0000   1.0000   1.0000   1.0000   1.0000   1.0000
     1.0000   1.0000   1.0000   1.0000   1.0000   1.0000   1.0000   1.0000
     1.0000   1.0000   1.0000   1.0000   1.0000   1.0000   1.0000   1.0000
     1.0000   1.0000   1.0000   1.0000   1.0000   1.0000   1.0000   1.0000
     1.0000   1.0000   1.0000   1.0000   1.0000   1.0000   1.0000   1.0000
     1.0000   1.0000   1.0000   1.0000   1.0000   1.0000   1.0000   1.0000
     1.0000   1.0000   1.0000   1.0000   1.0000   1.0000   1.0000   1.0000
     1.0000   1.0000   1.0000   1.0000   1.0000   1.0000   1.0000   1.0000
     0.0000   0.0000   0.0000   0.0000   0.0000   0.0000   0.0000   0.0000
     0.0000   0.0000   0.0000   0.0000   0.0000   0.0000   0.0000   0.0000
     0.0000   0.0000   0.0000   0.0000   0.0000   0.0000   0.0000   0.0000

          k = 0.0000 0.3333 0.3333 ( 24236 PWs)   bands (ev):

    -8.2052  -7.4613  -7.2390  -6.6159  -6.0107  -5.6890  -5.3646  -5.0308
    -4.9951  -4.8643  -4.5184  -4.2682  -4.2359  -3.9491  -3.5728  -3.5281
    -2.8120  -2.3910  -2.3404  -2.3313  -2.2048  -2.1964  -2.0586  -1.9072
    -1.5035  -1.3260  -1.1107  -0.9276  -0.5781  -0.0550   0.0567   0.1166
     0.1627   0.4538   0.6712   1.1688   1.1793   1.3025   1.3672   1.3708
     1.4337   1.4539   1.9366   2.0537   2.1122   2.3826   2.7224   2.8142
     2.9450   3.4831   3.6392   3.6526   3.7644   3.8007   3.9564   4.0190
     4.0965   4.5304   4.6429   4.7921   5.0125   5.0188   5.1365   5.2934
     5.3279   5.5738   5.6171   5.6673   5.7311   5.9249   5.9967   6.0626
     6.1392   6.2229   6.2707   6.4783   6.5222   6.5838   6.6415   6.8345
     6.9085   6.9359   6.9956   7.0368   7.2211   7.2636   7.4761   7.6689
     7.9194   7.9211   8.0576   8.0617   8.1115   8.2152   8.2614   8.3049
     8.3294   8.4004   8.5255   8.6171   8.6777   8.7084   8.8359   8.8697
     9.0639   9.1654   9.2313   9.2978   9.4494   9.4671   9.5404   9.6302
     9.6949   9.7800   9.8957  10.0331  10.0496  10.1153  10.3790  10.6442
    10.9819  11.1849  11.5558  11.5647  12.1912  13.0939  14.5121  14.8288
    17.9965  18.1772  18.2161  18.2957  18.3379  18.7828  18.8552  18.9354
    19.1628  19.2039  19.4368  19.4702  19.6809  19.7773  19.9610  19.9812
    20.1762  20.4271  20.4646  20.4935  20.5574  20.5693  20.6107  20.6236

     occupation numbers 
     1.0000   1.0000   1.0000   1.0000   1.0000   1.0000   1.0000   1.0000
     1.0000   1.0000   1.0000   1.0000   1.0000   1.0000   1.0000   1.0000
     1.0000   1.0000   1.0000   1.0000   1.0000   1.0000   1.0000   1.0000
     1.0000   1.0000   1.0000   1.0000   1.0000   1.0000   1.0000   1.0000
     1.0000   1.0000   1.0000   1.0000   1.0000   1.0000   1.0000   1.0000
     1.0000   1.0000   1.0000   1.0000   1.0000   1.0000   1.0000   1.0000
     1.0000   1.0000   1.0000   1.0000   1.0000   1.0000   1.0000   1.0000
     1.0000   1.0000   1.0000   1.0000   1.0000   1.0000   1.0000   1.0000
     1.0000   1.0000   1.0000   1.0000   1.0000   1.0000   1.0000   1.0000
     1.0000   1.0000   1.0000   1.0000   1.0000   1.0000   1.0000   1.0000
     1.0000   1.0000   1.0000   1.0000   1.0000   1.0000   1.0000   1.0000
     1.0000   1.0000   1.0000   1.0000   1.0000   1.0000   1.0000   1.0000
     1.0000   1.0000   1.0000   1.0000   1.0000   1.0000   1.0000   1.0000
     1.0000   1.0000   1.0000   1.0000   1.0000   1.0000   1.0000   1.0000
     1.0000   1.0000   1.0000   1.0000   1.0000   1.0000   1.0000   1.0000
     1.0000   1.0000   1.0000   1.0000   1.0000   1.0000   1.0000   1.0000
     0.0000   0.0000   0.0000   0.0000   0.0000   0.0000   0.0000   0.0000
     0.0000   0.0000   0.0000   0.0000   0.0000   0.0000   0.0000   0.0000
     0.0000   0.0000   0.0000   0.0000   0.0000   0.0000   0.0000   0.0000

          k = 0.3333 0.3333 0.3333 ( 24303 PWs)   bands (ev):

    -8.0375  -7.2909  -6.9909  -6.9909  -6.3336  -6.2323  -6.2323  -5.4838
    -4.2822  -4.0442  -4.0442  -3.5770  -3.3913  -3.3913  -3.3491  -3.3491
    -3.3146  -2.9227  -2.6721  -2.6721  -1.9608  -1.9310  -1.9310  -1.5514
    -1.4656  -1.4656  -1.4021  -1.4021  -1.3505  -1.2299  -1.2299   0.0174
     0.8486   0.8486   0.9529   0.9659   0.9659   1.2677   1.8113   1.8113
     1.8680   1.8853   1.9891   1.9891   2.5530   2.5530   2.5898   2.7020
     2.7190   2.7190   3.1245   3.1245   3.5179   4.0399   4.2945   4.2945
     4.7957   4.8893   4.8893   4.9417   5.0803   5.0803   5.1304   5.2991
     5.2991   5.4035   5.4855   5.4855   5.5343   5.5343   5.6041   6.3327
     6.6600   6.6600   6.9273   6.9722   6.9793   6.9793   7.0696   7.0696
     7.1939   7.1939   7.2391   7.2449   7.2449   7.2631   7.3520   7.3520
     7.3593   7.4645   7.7275   7.7275   7.9109   7.9109   7.9618   7.9917
     8.1803   8.1803   8.2898   8.2898   8.2990   8.4294   8.4734   8.4734
     8.6719   8.6719   8.7564   9.0502   9.0824   9.5119   9.5119   9.7652
     9.7652  10.4777  10.4777  10.4791  10.4953  10.9264  10.9264  11.1246
    11.2720  11.2720  11.2790  11.6465  11.6465  12.9727  14.8079  14.8079
    18.0292  18.2259  18.2259  18.4391  18.6375  18.6375  19.1653  19.3661
    19.3661  19.5362  19.5362  19.5883  19.6057  19.6057  19.6372  19.7452
    19.7452  19.8668  19.9089  19.9089  19.9883  19.9883  20.0271  20.1363

     occupation numbers 
     1.0000   1.0000   1.0000   1.0000   1.0000   1.0000   1.0000   1.0000
     1.0000   1.0000   1.0000   1.0000   1.0000   1.0000   1.0000   1.0000
     1.0000   1.0000   1.0000   1.0000   1.0000   1.0000   1.0000   1.0000
     1.0000   1.0000   1.0000   1.0000   1.0000   1.0000   1.0000   1.0000
     1.0000   1.0000   1.0000   1.0000   1.0000   1.0000   1.0000   1.0000
     1.0000   1.0000   1.0000   1.0000   1.0000   1.0000   1.0000   1.0000
     1.0000   1.0000   1.0000   1.0000   1.0000   1.0000   1.0000   1.0000
     1.0000   1.0000   1.0000   1.0000   1.0000   1.0000   1.0000   1.0000
     1.0000   1.0000   1.0000   1.0000   1.0000   1.0000   1.0000   1.0000
     1.0000   1.0000   1.0000   1.0000   1.0000   1.0000   1.0000   1.0000
     1.0000   1.0000   1.0000   1.0000   1.0000   1.0000   1.0000   1.0000
     1.0000   1.0000   1.0000   1.0000   1.0000   1.0000   1.0000   1.0000
     1.0000   1.0000   1.0000   1.0000   1.0000   1.0000   1.0000   1.0000
     1.0000   1.0000   1.0000   1.0000   1.0000   1.0000   1.0000   1.0000
     1.0000   1.0000   1.0000   1.0000   1.0000   1.0000   1.0000   1.0000
     1.0000   1.0000   1.0000   1.0000   1.0000   1.0000   1.0000   1.0000
     0.0000   0.0000   0.0000   0.0000   0.0000   0.0000   0.0000   0.0000
     0.0000   0.0000   0.0000   0.0000   0.0000   0.0000   0.0000   0.0000
     0.0000   0.0000   0.0000   0.0000   0.0000   0.0000   0.0000   0.0000

          k =-0.3333 0.0000 0.3333 ( 24236 PWs)   bands (ev):

    -8.1912  -7.5709  -7.1130  -6.6091  -6.0526  -5.6934  -5.4021  -5.0493
    -4.9432  -4.7758  -4.5433  -4.3133  -4.2312  -4.0676  -3.6168  -3.3413
    -2.8154  -2.4328  -2.3756  -2.2979  -2.2083  -2.1572  -2.1195  -1.6767
    -1.6472  -1.3288  -1.1290  -0.9995  -0.6215  -0.0254   0.0640   0.1066
     0.2551   0.4698   0.8662   1.0289   1.1895   1.2113   1.2288   1.3839
     1.4723   1.5772   1.8327   1.8782   2.1210   2.5635   2.6514   2.8555
     2.9449   3.4703   3.6321   3.6945   3.7475   3.8940   4.0061   4.1166
     4.1656   4.3694   4.5721   4.7821   4.9506   4.9920   5.1724   5.2346
     5.3859   5.5387   5.6266   5.6648   5.7757   5.9908   6.0703   6.1140
     6.1622   6.2177   6.2589   6.4068   6.4525   6.6086   6.6254   6.8015
     6.8808   6.9494   6.9977   7.0859   7.2023   7.3666   7.4763   7.6417
     7.8195   7.8740   7.9398   8.0608   8.1670   8.2106   8.2497   8.2660
     8.3510   8.4256   8.5166   8.5768   8.7109   8.7452   8.8845   8.9654
     9.0592   9.1233   9.2151   9.3087   9.4238   9.4802   9.4975   9.6472
     9.7121   9.7386   9.9266  10.0331  10.0628  10.1081  10.4741  10.7286
    10.8816  11.1263  11.4401  11.5574  12.2147  13.3766  14.4247  14.7244
    17.9778  18.1905  18.2412  18.2954  18.3604  18.7678  18.9206  19.0924
    19.1048  19.2609  19.3308  19.4645  19.6935  19.8244  19.8518  19.9953
    20.2037  20.3221  20.3855  20.4923  20.5431  20.5607  20.6289  20.6761

     occupation numbers 
     1.0000   1.0000   1.0000   1.0000   1.0000   1.0000   1.0000   1.0000
     1.0000   1.0000   1.0000   1.0000   1.0000   1.0000   1.0000   1.0000
     1.0000   1.0000   1.0000   1.0000   1.0000   1.0000   1.0000   1.0000
     1.0000   1.0000   1.0000   1.0000   1.0000   1.0000   1.0000   1.0000
     1.0000   1.0000   1.0000   1.0000   1.0000   1.0000   1.0000   1.0000
     1.0000   1.0000   1.0000   1.0000   1.0000   1.0000   1.0000   1.0000
     1.0000   1.0000   1.0000   1.0000   1.0000   1.0000   1.0000   1.0000
     1.0000   1.0000   1.0000   1.0000   1.0000   1.0000   1.0000   1.0000
     1.0000   1.0000   1.0000   1.0000   1.0000   1.0000   1.0000   1.0000
     1.0000   1.0000   1.0000   1.0000   1.0000   1.0000   1.0000   1.0000
     1.0000   1.0000   1.0000   1.0000   1.0000   1.0000   1.0000   1.0000
     1.0000   1.0000   1.0000   1.0000   1.0000   1.0000   1.0000   1.0000
     1.0000   1.0000   1.0000   1.0000   1.0000   1.0000   1.0000   1.0000
     1.0000   1.0000   1.0000   1.0000   1.0000   1.0000   1.0000   1.0000
     1.0000   1.0000   1.0000   1.0000   1.0000   1.0000   1.0000   1.0000
     1.0000   1.0000   1.0000   1.0000   1.0000   1.0000   1.0000   1.0000
     0.0000   0.0000   0.0000   0.0000   0.0000   0.0000   0.0000   0.0000
     0.0000   0.0000   0.0000   0.0000   0.0000   0.0000   0.0000   0.0000
     0.0000   0.0000   0.0000   0.0000   0.0000   0.0000   0.0000   0.0000

          k = 0.3333-0.3333 0.3333 ( 24303 PWs)   bands (ev):

    -8.0131  -7.4236  -6.9914  -6.8345  -6.4999  -6.2311  -6.0022  -5.5256
    -4.5781  -4.0448  -3.9486  -3.7367  -3.4421  -3.3744  -3.3326  -3.2206
    -3.0847  -2.8967  -2.6984  -2.4452  -2.1110  -1.9070  -1.8637  -1.7335
    -1.4940  -1.4870  -1.4332  -1.3664  -1.3565  -1.2516  -1.1803  -0.1158
     0.7230   0.8596   0.9340   0.9745   1.0541   1.4036   1.7070   1.7554
     1.8538   1.9324   2.0319   2.2161   2.5598   2.5868   2.6788   2.7070
     2.7156   2.7699   2.8941   3.1607   3.4751   3.9613   4.2157   4.3000
     4.7724   4.7780   4.8219   4.9972   5.0120   5.0503   5.1688   5.2386
     5.2574   5.4125   5.4270   5.5107   5.6559   5.7736   5.8150   6.4237
     6.6225   6.7131   6.9036   6.9175   6.9597   7.0290   7.0714   7.0793
     7.1505   7.1515   7.2204   7.2470   7.2645   7.3140   7.3443   7.3526
     7.3733   7.4481   7.7179   7.7210   7.8097   7.9080   7.9421   7.9462
     8.1300   8.1535   8.2551   8.2783   8.3496   8.3888   8.4051   8.4882
     8.6867   8.7203   8.9193   8.9976   9.0719   9.5121   9.5742   9.5906
     9.8435  10.3830  10.4234  10.5137  10.5373  10.8613  10.9163  11.1320
    11.2229  11.2476  11.2855  11.7153  11.7195  13.3577  14.4984  14.8050
    18.0352  18.2602  18.3190  18.5061  18.6416  18.7070  19.1291  19.3556
    19.4380  19.4847  19.5155  19.5500  19.5928  19.6225  19.6419  19.7088
    19.7460  19.7819  19.8956  19.8966  19.9741  19.9840  20.0378  20.1428

     occupation numbers 
     1.0000   1.0000   1.0000   1.0000   1.0000   1.0000   1.0000   1.0000
     1.0000   1.0000   1.0000   1.0000   1.0000   1.0000   1.0000   1.0000
     1.0000   1.0000   1.0000   1.0000   1.0000   1.0000   1.0000   1.0000
     1.0000   1.0000   1.0000   1.0000   1.0000   1.0000   1.0000   1.0000
     1.0000   1.0000   1.0000   1.0000   1.0000   1.0000   1.0000   1.0000
     1.0000   1.0000   1.0000   1.0000   1.0000   1.0000   1.0000   1.0000
     1.0000   1.0000   1.0000   1.0000   1.0000   1.0000   1.0000   1.0000
     1.0000   1.0000   1.0000   1.0000   1.0000   1.0000   1.0000   1.0000
     1.0000   1.0000   1.0000   1.0000   1.0000   1.0000   1.0000   1.0000
     1.0000   1.0000   1.0000   1.0000   1.0000   1.0000   1.0000   1.0000
     1.0000   1.0000   1.0000   1.0000   1.0000   1.0000   1.0000   1.0000
     1.0000   1.0000   1.0000   1.0000   1.0000   1.0000   1.0000   1.0000
     1.0000   1.0000   1.0000   1.0000   1.0000   1.0000   1.0000   1.0000
     1.0000   1.0000   1.0000   1.0000   1.0000   1.0000   1.0000   1.0000
     1.0000   1.0000   1.0000   1.0000   1.0000   1.0000   1.0000   1.0000
     1.0000   1.0000   1.0000   1.0000   1.0000   1.0000   1.0000   1.0000
     0.0000   0.0000   0.0000   0.0000   0.0000   0.0000   0.0000   0.0000
     0.0000   0.0000   0.0000   0.0000   0.0000   0.0000   0.0000   0.0000
     0.0000   0.0000   0.0000   0.0000   0.0000   0.0000   0.0000   0.0000

 ------ SPIN DOWN ----------


          k = 0.0000 0.0000 0.0000 ( 24207 PWs)   bands (ev):

    -8.5799  -7.0654  -6.2786  -6.2786  -6.1348  -6.1348  -5.8683  -4.9663
    -4.1361  -4.1361  -4.1184  -4.1184  -3.9976  -3.9872  -3.9872  -3.9537
    -3.8315  -3.8315  -3.3392  -2.9529  -2.6391  -2.6391  -2.0160  -0.3894
    -0.3894  -0.3452  -0.3022  -0.1123   0.1589   0.1589   0.2885   0.2885
     0.3651   0.6125   0.8055   0.8055   0.9830   0.9830   0.9868   1.0285
     1.0285   1.0564   1.4543   1.4543   3.1235   3.8443   3.8443   4.0358
     4.2087   4.2165   4.2165   4.2468   4.2468   4.2485   4.4230   4.4230
     4.4728   4.4728   4.5713   4.6405   4.6405   4.6455   4.6487   4.7550
     4.7550   4.8806   4.9477   4.9477   5.0748   5.1994   5.1994   5.2705
     5.3247   5.3247   5.3659   5.4405   5.4405   6.0358   6.0358   6.0705
     6.6112   6.6112   6.7088   6.9760   7.0492   7.0492   7.6232   8.2897
     8.2897   8.3966   8.4568   8.4568   8.6331   8.6331   8.7731   8.7882
     8.7882   8.8251   8.8731   8.8773   8.8773   9.2581   9.2583   9.2583
     9.6519   9.6519   9.8656   9.8785   9.8820   9.8820   9.9034   9.9373
     9.9373   9.9699   9.9776   9.9776  10.0890  10.0890  10.3092  10.3225
    10.3225  11.0435  12.4924  12.4924  12.4930  14.2914  15.9928  15.9928
    17.2554  17.3300  17.3300  17.4779  17.5672  17.5672  17.8244  17.8970
    17.8970  18.0170  18.0170  18.4147  18.9338  18.9338  18.9708  20.5730
    20.7491  20.7492  20.8141  20.8810  20.8810  20.9739  20.9739  20.9746

     occupation numbers 
     1.0000   1.0000   1.0000   1.0000   1.0000   1.0000   1.0000   1.0000
     1.0000   1.0000   1.0000   1.0000   1.0000   1.0000   1.0000   1.0000
     1.0000   1.0000   1.0000   1.0000   1.0000   1.0000   1.0000   1.0000
     1.0000   1.0000   1.0000   1.0000   1.0000   1.0000   1.0000   1.0000
     1.0000   1.0000   1.0000   1.0000   1.0000   1.0000   1.0000   1.0000
     1.0000   1.0000   1.0000   1.0000   1.0000   1.0000   1.0000   1.0000
     1.0000   1.0000   1.0000   1.0000   1.0000   1.0000   1.0000   1.0000
     1.0000   1.0000   1.0000   1.0000   1.0000   1.0000   1.0000   1.0000
     1.0000   1.0000   1.0000   1.0000   1.0000   1.0000   1.0000   1.0000
     1.0000   1.0000   1.0000   1.0000   1.0000   1.0000   1.0000   1.0000
     1.0000   1.0000   1.0000   1.0000   1.0000   1.0000   1.0000   1.0000
     1.0000   1.0000   1.0000   1.0000   1.0000   1.0000   1.0000   1.0000
     1.0000   1.0000   1.0000   1.0000   1.0000   1.0000   1.0000   1.0000
     1.0000   1.0000   1.0000   1.0000   1.0000   1.0000   1.0000   1.0000
     1.0000   1.0000   1.0000   1.0000   1.0000   1.0000   1.0000   1.0000
     1.0000   1.0000   1.0000   1.0000   1.0000   0.0000   1.0000   0.0000
     0.0000   0.0000   0.0000   0.0000   0.0000   0.0000   0.0000   0.0000
     0.0000   0.0000   0.0000   0.0000   0.0000   0.0000   0.0000   0.0000
     0.0000   0.0000   0.0000   0.0000   0.0000   0.0000   0.0000   0.0000

          k = 0.0000 0.0000 0.3333 ( 24280 PWs)   bands (ev):

    -8.3605  -7.5784  -6.6309  -6.0346  -5.8964  -5.8097  -5.4936  -5.2893
    -5.1345  -4.9616  -4.5030  -4.1204  -3.7981  -3.7891  -3.6699  -3.4192
    -3.1912  -3.1147  -2.9052  -2.5889  -2.4994  -2.3452  -2.2906  -1.7220
    -0.8264  -0.6899  -0.5495  -0.3118   0.1815   0.2476   0.3591   0.4135
     0.4923   0.5757   0.5812   0.6798   0.7533   0.7713   1.0530   1.5116
     2.0028   2.0194   2.1849   2.2288   2.4360   2.5028   2.5041   2.7645
     2.9732   3.0087   3.2171   3.2432   3.8795   3.9708   4.0651   4.0750
     4.2970   4.3842   4.5255   4.5731   5.0731   5.1378   5.1560   5.2177
     5.2273   5.6083   5.6194   5.7343   5.7784   6.0657   6.1076   6.2023
     6.2062   6.3258   6.4067   6.4745   6.5289   6.6256   6.6373   6.7655
     6.7747   6.9144   6.9212   6.9612   7.1645   7.1684   7.2065   7.2893
     7.4277   7.5025   7.7389   7.8007   7.8699   8.0674   8.1526   8.3027
     8.3228   8.4566   8.6856   8.7465   8.7908   9.1199   9.2356   9.3844
     9.3930   9.6511   9.6610   9.7167   9.8116   9.9168   9.9509   9.9562
     9.9965  10.0401  10.1246  10.1429  10.2045  10.2951  10.3074  10.4213
    10.4264  11.3037  11.7410  11.8001  12.1246  14.1789  15.6917  15.8905
    17.1966  17.3156  17.9562  18.2841  18.3485  18.4986  18.5285  18.6299
    18.8450  18.8470  19.0216  19.1049  19.2561  19.8410  19.8810  20.4456
    20.6567  20.6854  20.7903  20.7984  20.8339  20.8577  20.9195  20.9608

     occupation numbers 
     1.0000   1.0000   1.0000   1.0000   1.0000   1.0000   1.0000   1.0000
     1.0000   1.0000   1.0000   1.0000   1.0000   1.0000   1.0000   1.0000
     1.0000   1.0000   1.0000   1.0000   1.0000   1.0000   1.0000   1.0000
     1.0000   1.0000   1.0000   1.0000   1.0000   1.0000   1.0000   1.0000
     1.0000   1.0000   1.0000   1.0000   1.0000   1.0000   1.0000   1.0000
     1.0000   1.0000   1.0000   1.0000   1.0000   1.0000   1.0000   1.0000
     1.0000   1.0000   1.0000   1.0000   1.0000   1.0000   1.0000   1.0000
     1.0000   1.0000   1.0000   1.0000   1.0000   1.0000   1.0000   1.0000
     1.0000   1.0000   1.0000   1.0000   1.0000   1.0000   1.0000   1.0000
     1.0000   1.0000   1.0000   1.0000   1.0000   1.0000   1.0000   1.0000
     1.0000   1.0000   1.0000   1.0000   1.0000   1.0000   1.0000   1.0000
     1.0000   1.0000   1.0000   1.0000   1.0000   1.0000   1.0000   1.0000
     1.0000   1.0000   1.0000   1.0000   1.0000   1.0000   1.0000   1.0000
     1.0000   1.0000   1.0000   1.0000   1.0000   1.0000   1.0000   1.0000
     1.0000   1.0000   1.0000   1.0000   1.0000   1.0000   1.0000   1.0000
     1.0000   1.0000   1.0000   1.0000   1.0000   0.0000   1.0000   0.0000
     0.0000   0.0000   0.0000   0.0000   0.0000   0.0000   0.0000   0.0000
     0.0000   0.0000   0.0000   0.0000   0.0000   0.0000   0.0000   0.0000
     0.0000   0.0000   0.0000   0.0000   0.0000   0.0000   0.0000   0.0000

          k = 0.0000 0.3333 0.3333 ( 24236 PWs)   bands (ev):

    -8.1612  -7.4150  -7.2116  -6.5751  -5.9711  -5.6596  -5.3272  -4.9933
    -4.9765  -4.8393  -4.4739  -4.2416  -4.2060  -3.9022  -3.5256  -3.4988
    -2.7730  -2.3698  -2.3114  -2.3077  -2.1691  -2.1657  -2.0128  -1.8655
    -1.4692  -1.2974  -1.0646  -0.8803  -0.4977  -0.0087   0.0758   0.1387
     0.1998   0.4971   0.7150   1.1937   1.2005   1.3226   1.4002   1.4076
     1.4695   1.4957   1.9639   2.1051   2.1763   2.4418   2.7455   2.8605
     2.9909   3.5401   3.6663   3.6758   3.7999   3.8228   3.9994   4.0437
     4.1465   4.5965   4.6721   4.8456   5.0407   5.0470   5.1692   5.3237
     5.3710   5.6128   5.6440   5.7209   5.7714   5.9530   6.0359   6.0988
     6.1520   6.2569   6.3024   6.5136   6.5433   6.6156   6.6769   6.8698
     6.9292   6.9614   7.0560   7.0657   7.2604   7.3057   7.5322   7.7235
     7.9560   7.9959   8.0827   8.0944   8.1353   8.2451   8.2929   8.3428
     8.3668   8.4241   8.5658   8.6458   8.7301   8.7335   8.8852   8.9042
     9.0888   9.2161   9.2609   9.3406   9.4891   9.5032   9.6019   9.6553
     9.7412   9.8226   9.9295  10.0756  10.0888  10.1468  10.4506  10.7779
    11.0795  11.2480  11.5827  11.8486  12.2603  14.0586  15.6357  15.9330
    18.0450  18.2051  18.2559  18.3183  18.3704  18.8089  18.8769  18.9689
    19.1989  19.2354  19.4704  19.4975  19.7089  19.8191  19.9912  20.0220
    20.2078  20.4532  20.4866  20.5182  20.5832  20.5995  20.6286  20.6531

     occupation numbers 
     1.0000   1.0000   1.0000   1.0000   1.0000   1.0000   1.0000   1.0000
     1.0000   1.0000   1.0000   1.0000   1.0000   1.0000   1.0000   1.0000
     1.0000   1.0000   1.0000   1.0000   1.0000   1.0000   1.0000   1.0000
     1.0000   1.0000   1.0000   1.0000   1.0000   1.0000   1.0000   1.0000
     1.0000   1.0000   1.0000   1.0000   1.0000   1.0000   1.0000   1.0000
     1.0000   1.0000   1.0000   1.0000   1.0000   1.0000   1.0000   1.0000
     1.0000   1.0000   1.0000   1.0000   1.0000   1.0000   1.0000   1.0000
     1.0000   1.0000   1.0000   1.0000   1.0000   1.0000   1.0000   1.0000
     1.0000   1.0000   1.0000   1.0000   1.0000   1.0000   1.0000   1.0000
     1.0000   1.0000   1.0000   1.0000   1.0000   1.0000   1.0000   1.0000
     1.0000   1.0000   1.0000   1.0000   1.0000   1.0000   1.0000   1.0000
     1.0000   1.0000   1.0000   1.0000   1.0000   1.0000   1.0000   1.0000
     1.0000   1.0000   1.0000   1.0000   1.0000   1.0000   1.0000   1.0000
     1.0000   1.0000   1.0000   1.0000   1.0000   1.0000   1.0000   1.0000
     1.0000   1.0000   1.0000   1.0000   1.0000   1.0000   1.0000   1.0000
     1.0000   1.0000   1.0000   1.0000   1.0000   0.0000   1.0000   0.0000
     0.0000   0.0000   0.0000   0.0000   0.0000   0.0000   0.0000   0.0000
     0.0000   0.0000   0.0000   0.0000   0.0000   0.0000   0.0000   0.0000
     0.0000   0.0000   0.0000   0.0000   0.0000   0.0000   0.0000   0.0000

          k = 0.3333 0.3333 0.3333 ( 24303 PWs)   bands (ev):

    -7.9869  -7.2448  -6.9645  -6.9645  -6.2978  -6.2026  -6.2026  -5.4335
    -4.2113  -4.0188  -4.0188  -3.5365  -3.3628  -3.3628  -3.3193  -3.3193
    -3.2943  -2.8983  -2.6277  -2.6277  -1.9357  -1.9104  -1.9104  -1.5292
    -1.4467  -1.4467  -1.3769  -1.3769  -1.3284  -1.1400  -1.1400   0.1444
     0.8724   0.8724   0.9930   0.9930   1.0196   1.3035   1.8375   1.8375
     1.8827   1.9366   2.0232   2.0232   2.5785   2.5785   2.6186   2.7194
     2.7471   2.7471   3.2103   3.2103   3.5552   4.1153   4.3222   4.3222
     4.8578   4.9290   4.9290   4.9586   5.1029   5.1029   5.1839   5.3304
     5.3304   5.4294   5.5122   5.5122   5.5715   5.5715   5.6573   6.4261
     6.7093   6.7093   6.9404   7.0048   7.0048   7.0136   7.0935   7.0935
     7.2167   7.2167   7.2527   7.2693   7.2693   7.2897   7.3831   7.3831
     7.3843   7.5228   7.7682   7.7682   7.9372   7.9372   7.9837   8.0125
     8.2124   8.2124   8.3154   8.3154   8.3193   8.4439   8.5226   8.5226
     8.7068   8.7068   8.8561   9.0882   9.1580   9.5634   9.5634   9.8433
     9.8433  10.5032  10.5032  10.5181  10.6216  10.9798  10.9798  11.2984
    11.2984  11.3025  11.5733  11.6864  11.6864  13.9009  15.9454  15.9454
    18.0907  18.2502  18.2502  18.4649  18.6679  18.6679  19.1991  19.3812
    19.3812  19.5587  19.5587  19.6023  19.6299  19.6299  19.6574  19.7628
    19.7628  19.8918  19.9383  19.9383  20.0266  20.0266  20.0412  20.1682

     occupation numbers 
     1.0000   1.0000   1.0000   1.0000   1.0000   1.0000   1.0000   1.0000
     1.0000   1.0000   1.0000   1.0000   1.0000   1.0000   1.0000   1.0000
     1.0000   1.0000   1.0000   1.0000   1.0000   1.0000   1.0000   1.0000
     1.0000   1.0000   1.0000   1.0000   1.0000   1.0000   1.0000   1.0000
     1.0000   1.0000   1.0000   1.0000   1.0000   1.0000   1.0000   1.0000
     1.0000   1.0000   1.0000   1.0000   1.0000   1.0000   1.0000   1.0000
     1.0000   1.0000   1.0000   1.0000   1.0000   1.0000   1.0000   1.0000
     1.0000   1.0000   1.0000   1.0000   1.0000   1.0000   1.0000   1.0000
     1.0000   1.0000   1.0000   1.0000   1.0000   1.0000   1.0000   1.0000
     1.0000   1.0000   1.0000   1.0000   1.0000   1.0000   1.0000   1.0000
     1.0000   1.0000   1.0000   1.0000   1.0000   1.0000   1.0000   1.0000
     1.0000   1.0000   1.0000   1.0000   1.0000   1.0000   1.0000   1.0000
     1.0000   1.0000   1.0000   1.0000   1.0000   1.0000   1.0000   1.0000
     1.0000   1.0000   1.0000   1.0000   1.0000   1.0000   1.0000   1.0000
     1.0000   1.0000   1.0000   1.0000   1.0000   1.0000   1.0000   1.0000
     1.0000   1.0000   1.0000   1.0000   1.0000   0.0000   1.0000   0.0000
     0.0000   0.0000   0.0000   0.0000   0.0000   0.0000   0.0000   0.0000
     0.0000   0.0000   0.0000   0.0000   0.0000   0.0000   0.0000   0.0000
     0.0000   0.0000   0.0000   0.0000   0.0000   0.0000   0.0000   0.0000

          k =-0.3333 0.0000 0.3333 ( 24236 PWs)   bands (ev):

    -8.1465  -7.5309  -7.0823  -6.5628  -6.0164  -5.6673  -5.3617  -5.0325
    -4.9008  -4.7404  -4.5193  -4.2764  -4.1950  -4.0358  -3.5753  -3.3030
    -2.7706  -2.4085  -2.3582  -2.2756  -2.1668  -2.1265  -2.0857  -1.6557
    -1.5653  -1.2959  -1.0968  -0.9440  -0.5564  -0.0077   0.0888   0.1413
     0.3002   0.5176   0.9331   1.0579   1.2099   1.2314   1.2621   1.4034
     1.5029   1.6216   1.8849   1.9048   2.1476   2.6269   2.7038   2.9002
     2.9925   3.5159   3.6681   3.7149   3.7768   3.9212   4.0473   4.1468
     4.2295   4.4231   4.6076   4.8349   4.9718   5.0229   5.2047   5.2693
     5.4271   5.5793   5.6519   5.7097   5.8216   6.0225   6.0856   6.1471
     6.1921   6.2486   6.2969   6.4398   6.4860   6.6327   6.6565   6.8211
     6.9045   6.9748   7.0365   7.1343   7.2559   7.4213   7.5339   7.6800
     7.9086   7.9240   7.9670   8.0762   8.1951   8.2326   8.2748   8.3007
     8.3846   8.4626   8.5719   8.6036   8.7567   8.7739   8.9173   8.9913
     9.1030   9.1572   9.2601   9.3490   9.4697   9.5230   9.5264   9.6882
     9.7489   9.7955   9.9558  10.0633  10.0979  10.1493  10.5203  10.9395
    10.9733  11.1997  11.5023  11.7247  12.3643  14.2876  15.5306  15.8446
    18.0136  18.2171  18.2699  18.3246  18.3935  18.7904  18.9460  19.1226
    19.1322  19.2896  19.3954  19.4976  19.7240  19.8717  19.8813  20.0398
    20.2358  20.3542  20.4159  20.5112  20.5638  20.5861  20.6519  20.7023

     occupation numbers 
     1.0000   1.0000   1.0000   1.0000   1.0000   1.0000   1.0000   1.0000
     1.0000   1.0000   1.0000   1.0000   1.0000   1.0000   1.0000   1.0000
     1.0000   1.0000   1.0000   1.0000   1.0000   1.0000   1.0000   1.0000
     1.0000   1.0000   1.0000   1.0000   1.0000   1.0000   1.0000   1.0000
     1.0000   1.0000   1.0000   1.0000   1.0000   1.0000   1.0000   1.0000
     1.0000   1.0000   1.0000   1.0000   1.0000   1.0000   1.0000   1.0000
     1.0000   1.0000   1.0000   1.0000   1.0000   1.0000   1.0000   1.0000
     1.0000   1.0000   1.0000   1.0000   1.0000   1.0000   1.0000   1.0000
     1.0000   1.0000   1.0000   1.0000   1.0000   1.0000   1.0000   1.0000
     1.0000   1.0000   1.0000   1.0000   1.0000   1.0000   1.0000   1.0000
     1.0000   1.0000   1.0000   1.0000   1.0000   1.0000   1.0000   1.0000
     1.0000   1.0000   1.0000   1.0000   1.0000   1.0000   1.0000   1.0000
     1.0000   1.0000   1.0000   1.0000   1.0000   1.0000   1.0000   1.0000
     1.0000   1.0000   1.0000   1.0000   1.0000   1.0000   1.0000   1.0000
     1.0000   1.0000   1.0000   1.0000   1.0000   1.0000   1.0000   1.0000
     1.0000   1.0000   1.0000   1.0000   1.0000   0.0000   1.0000   0.0000
     0.0000   0.0000   0.0000   0.0000   0.0000   0.0000   0.0000   0.0000
     0.0000   0.0000   0.0000   0.0000   0.0000   0.0000   0.0000   0.0000
     0.0000   0.0000   0.0000   0.0000   0.0000   0.0000   0.0000   0.0000

          k = 0.3333-0.3333 0.3333 ( 24303 PWs)   bands (ev):

    -7.9608  -7.3837  -6.9650  -6.8059  -6.4714  -6.2011  -5.9571  -5.4791
    -4.5162  -4.0212  -3.9262  -3.6969  -3.4176  -3.3501  -3.3159  -3.1861
    -3.0543  -2.8693  -2.6582  -2.3839  -2.0651  -1.8803  -1.8324  -1.7113
    -1.4767  -1.4705  -1.4094  -1.3430  -1.3325  -1.1856  -1.0930  -0.0008
     0.7508   0.8840   0.9630   0.9996   1.0983   1.4501   1.7295   1.7914
     1.8757   1.9669   2.0626   2.2763   2.5988   2.6052   2.7015   2.7291
     2.7442   2.8230   2.9386   3.2534   3.5168   4.0224   4.2621   4.3290
     4.7950   4.8186   4.8738   5.0283   5.0337   5.0690   5.2161   5.2636
     5.2850   5.4395   5.4610   5.5443   5.7134   5.8248   5.8686   6.5101
     6.6513   6.7471   6.9303   6.9468   6.9754   7.0524   7.0872   7.1175
     7.1756   7.1796   7.2418   7.2772   7.2859   7.3539   7.3750   7.3804
     7.4034   7.4843   7.7567   7.7600   7.8539   7.9345   7.9661   7.9754
     8.1542   8.1804   8.2764   8.3114   8.3842   8.4205   8.4322   8.5346
     8.7209   8.7530   8.9761   9.0313   9.1850   9.5606   9.6125   9.6935
     9.9384  10.4078  10.5383  10.5404  10.6097  10.9625  10.9639  11.2186
    11.2477  11.3132  11.4996  11.7530  11.8236  14.2709  15.6110  15.9505
    18.0660  18.2822  18.3468  18.5410  18.6676  18.7555  19.1632  19.3777
    19.4537  19.4991  19.5344  19.5687  19.6287  19.6469  19.6721  19.7293
    19.7620  19.8099  19.9229  19.9277  19.9948  20.0018  20.0719  20.1773

     occupation numbers 
     1.0000   1.0000   1.0000   1.0000   1.0000   1.0000   1.0000   1.0000
     1.0000   1.0000   1.0000   1.0000   1.0000   1.0000   1.0000   1.0000
     1.0000   1.0000   1.0000   1.0000   1.0000   1.0000   1.0000   1.0000
     1.0000   1.0000   1.0000   1.0000   1.0000   1.0000   1.0000   1.0000
     1.0000   1.0000   1.0000   1.0000   1.0000   1.0000   1.0000   1.0000
     1.0000   1.0000   1.0000   1.0000   1.0000   1.0000   1.0000   1.0000
     1.0000   1.0000   1.0000   1.0000   1.0000   1.0000   1.0000   1.0000
     1.0000   1.0000   1.0000   1.0000   1.0000   1.0000   1.0000   1.0000
     1.0000   1.0000   1.0000   1.0000   1.0000   1.0000   1.0000   1.0000
     1.0000   1.0000   1.0000   1.0000   1.0000   1.0000   1.0000   1.0000
     1.0000   1.0000   1.0000   1.0000   1.0000   1.0000   1.0000   1.0000
     1.0000   1.0000   1.0000   1.0000   1.0000   1.0000   1.0000   1.0000
     1.0000   1.0000   1.0000   1.0000   1.0000   1.0000   1.0000   1.0000
     1.0000   1.0000   1.0000   1.0000   1.0000   1.0000   1.0000   1.0000
     1.0000   1.0000   1.0000   1.0000   1.0000   1.0000   1.0000   1.0000
     1.0000   1.0000   1.0000   1.0000   1.0000   0.0000   1.0000   0.0000
     0.0000   0.0000   0.0000   0.0000   0.0000   0.0000   0.0000   0.0000
     0.0000   0.0000   0.0000   0.0000   0.0000   0.0000   0.0000   0.0000
     0.0000   0.0000   0.0000   0.0000   0.0000   0.0000   0.0000   0.0000

     highest occupied, lowest unoccupied level (ev):    14.8985   13.9009

!    total energy              =    -724.69371744 Ry
     Harris-Foulkes estimate   =    -724.69371657 Ry
     estimated scf accuracy    <       0.00000090 Ry

     The total energy is the sum of the following terms:

     one-electron contribution =     232.30465141 Ry
     hartree contribution      =      69.48446620 Ry
     xc contribution           =    -226.43404265 Ry
     ewald contribution        =    -800.04879239 Ry

     total magnetization       =     2.00 Bohr mag/cell
     absolute magnetization    =     2.20 Bohr mag/cell

     convergence has been achieved in  10 iterations

     Writing output data file di.save
 
     init_run     :      1.27s CPU      1.64s WALL (       1 calls)
     electrons    :     28.14s CPU     28.60s WALL (       1 calls)

     Called by init_run:
     wfcinit      :      0.76s CPU      0.84s WALL (       1 calls)
     wfcinit:atom :      0.01s CPU      0.01s WALL (       2 calls)
     wfcinit:wfcr :      0.71s CPU      0.78s WALL (       2 calls)
     potinit      :      0.10s CPU      0.12s WALL (       1 calls)

     Called by electrons:
     c_bands      :     26.40s CPU     26.81s WALL (      10 calls)
     sum_band     :      1.16s CPU      1.18s WALL (      10 calls)
     v_of_rho     :      0.39s CPU      0.41s WALL (      11 calls)
     v_h          :      0.01s CPU      0.01s WALL (      11 calls)
     v_xc         :      0.38s CPU      0.39s WALL (      11 calls)
     mix_rho      :      0.07s CPU      0.08s WALL (      10 calls)

     Called by c_bands:
     init_us_2    :      0.19s CPU      0.20s WALL (      42 calls)
     cegterg      :     23.08s CPU     23.46s WALL (      20 calls)

     Called by sum_band:

     Called by *egterg:
     h_psi        :      9.30s CPU      9.43s WALL (     133 calls)
     g_psi        :      0.05s CPU      0.05s WALL (     111 calls)
     cdiaghg      :      9.68s CPU      9.74s WALL (     131 calls)
     cegterg:over :      1.80s CPU      1.81s WALL (     111 calls)
     cegterg:upda :      1.39s CPU      1.39s WALL (     111 calls)
     cegterg:last :      0.52s CPU      0.52s WALL (      20 calls)

     Called by h_psi:
     h_psi:pot    :      9.19s CPU      9.32s WALL (     133 calls)
     h_psi:calbec :      1.98s CPU      2.00s WALL (     133 calls)
     vloc_psi     :      5.13s CPU      5.22s WALL (     133 calls)
     add_vuspsi   :      2.08s CPU      2.10s WALL (     133 calls)

     General routines
     calbec       :      1.98s CPU      2.00s WALL (     133 calls)
     fft          :      0.12s CPU      0.31s WALL (     228 calls)
     fftw         :      5.45s CPU      5.47s WALL (   20488 calls)
 
     Parallel routines
     fft_scatter  :      1.60s CPU      1.59s WALL (   20716 calls)
 
     PWSCF        :    32.30s CPU        35.92s WALL

 
   This run was terminated on:  10:32:14  12May2020            

=------------------------------------------------------------------------------=
   JOB DONE.
=------------------------------------------------------------------------------=
