
     Program PWSCF v.6.1 (svn rev. 13369) starts on 12May2020 at 10:29:59 

     This program is part of the open-source Quantum ESPRESSO suite
     for quantum simulation of materials; please cite
         "P. Giannozzi et al., J. Phys.:Condens. Matter 21 395502 (2009);
          URL http://www.quantum-espresso.org", 
     in publications or presentations arising from this work. More details at
     http://www.quantum-espresso.org/quote

     Parallel version (MPI), running on    96 processors
     K-points division:     npool     =       6
     R & G space division:  proc/nbgrp/npool/nimage =      16
     Reading input from scf.in
Warning: card &IONS ignored
Warning: card / ignored

     Current dimensions of program PWSCF are:
     Max number of different atomic species (ntypx) = 10
     Max number of k-points (npk) =  40000
     Max angular momentum in pseudopotentials (lmaxx) =  3

     Subspace diagonalization in iterative solution of the eigenvalue problem:
     a serial algorithm will be used

 
     Parallelization info
     --------------------
     sticks:   dense  smooth     PW     G-vecs:    dense   smooth      PW
     Min         252     252     67                12125    12125    1669
     Max         254     254     68                12129    12129    1672
     Sum        4049    4049   1085               194039   194039   26745
 


     bravais-lattice index     =            1
     lattice parameter (alat)  =      13.4862  a.u.
     unit-cell volume          =    2452.8358 (a.u.)^3
     number of atoms/cell      =           63
     number of atomic types    =            2
     number of electrons       =       254.00
     number of Kohn-Sham states=          152
     kinetic-energy cutoff     =      70.0000  Ry
     charge density cutoff     =     280.0000  Ry
     convergence threshold     =      1.0E-06
     mixing beta               =       0.5000
     number of iterations used =            8  plain     mixing
     Exchange-correlation      = PBE ( 1  4  3  4 0 0)

     celldm(1)=  13.486197  celldm(2)=   0.000000  celldm(3)=   0.000000
     celldm(4)=   0.000000  celldm(5)=   0.000000  celldm(6)=   0.000000

     crystal axes: (cart. coord. in units of alat)
               a(1) = (   1.000000   0.000000   0.000000 )  
               a(2) = (   0.000000   1.000000   0.000000 )  
               a(3) = (   0.000000   0.000000   1.000000 )  

     reciprocal axes: (cart. coord. in units 2 pi/alat)
               b(1) = (  1.000000  0.000000  0.000000 )  
               b(2) = (  0.000000  1.000000  0.000000 )  
               b(3) = (  0.000000  0.000000  1.000000 )  


     PseudoPot. # 1 for C  read from file:
     /home/tjsmart/Pseudo/C_ONCV_PBE-1.0.upf
     MD5 check sum: 72b63e32b2fd29504de26a4901699f60
     Pseudo is Norm-conserving, Zval =  4.0
     Generated using ONCVPSP code by D. R. Hamann
     Using radial grid of 1248 points,  4 beta functions with: 
                l(1) =   0
                l(2) =   0
                l(3) =   1
                l(4) =   1

     PseudoPot. # 2 for N  read from file:
     /home/tjsmart/Pseudo/N_ONCV_PBE-1.0.upf
     MD5 check sum: 09890da6b2972017450f7114a6086fad
     Pseudo is Norm-conserving, Zval =  5.0
     Generated using ONCVPSP code by D. R. Hamann
     Using radial grid of 1058 points,  4 beta functions with: 
                l(1) =   0
                l(2) =   0
                l(3) =   1
                l(4) =   1

     atomic species   valence    mass     pseudopotential
        C              4.00    12.01110     C ( 1.00)
        N              5.00    14.00670     N ( 1.00)

     Starting magnetic structure 
     atomic species   magnetization
        C            0.500
        N            0.500

      6 Sym. Ops. (no inversion) found


                                    s                        frac. trans.

      isym =  1     identity                                     

 cryst.   s( 1) = (     1          0          0      )
                  (     0          1          0      )
                  (     0          0          1      )

 cart.    s( 1) = (  1.0000000  0.0000000  0.0000000 )
                  (  0.0000000  1.0000000  0.0000000 )
                  (  0.0000000  0.0000000  1.0000000 )


      isym =  2     120 deg rotation - cart. axis [-1,-1,-1]     

 cryst.   s( 2) = (     0          0          1      )
                  (     1          0          0      )
                  (     0          1          0      )

 cart.    s( 2) = (  0.0000000  1.0000000  0.0000000 )
                  (  0.0000000  0.0000000  1.0000000 )
                  (  1.0000000  0.0000000  0.0000000 )


      isym =  3     120 deg rotation - cart. axis [1,1,1]        

 cryst.   s( 3) = (     0          1          0      )
                  (     0          0          1      )
                  (     1          0          0      )

 cart.    s( 3) = (  0.0000000  0.0000000  1.0000000 )
                  (  1.0000000  0.0000000  0.0000000 )
                  (  0.0000000  1.0000000  0.0000000 )


      isym =  4     inv. 180 deg rotation - cart. axis [1,-1,0]  

 cryst.   s( 4) = (     0          1          0      )
                  (     1          0          0      )
                  (     0          0          1      )

 cart.    s( 4) = (  0.0000000  1.0000000  0.0000000 )
                  (  1.0000000  0.0000000  0.0000000 )
                  (  0.0000000  0.0000000  1.0000000 )


      isym =  5     inv. 180 deg rotation - cart. axis [-1,0,1]  

 cryst.   s( 5) = (     0          0          1      )
                  (     0          1          0      )
                  (     1          0          0      )

 cart.    s( 5) = (  0.0000000  0.0000000  1.0000000 )
                  (  0.0000000  1.0000000  0.0000000 )
                  (  1.0000000  0.0000000  0.0000000 )


      isym =  6     inv. 180 deg rotation - cart. axis [0,1,-1]  

 cryst.   s( 6) = (     1          0          0      )
                  (     0          0          1      )
                  (     0          1          0      )

 cart.    s( 6) = (  1.0000000  0.0000000  0.0000000 )
                  (  0.0000000  0.0000000  1.0000000 )
                  (  0.0000000  1.0000000  0.0000000 )


     point group C_3v (3m)  
     there are  3 classes
     the character table:

       E     2C3   3s_v 
A_1    1.00  1.00  1.00
A_2    1.00  1.00 -1.00
E      2.00 -1.00  0.00

     the symmetry operations in each class and the name of the first element:

     E        1
          identity                                               
     2C3      2    3
          120 deg rotation - cart. axis [-1,-1,-1]               
     3s_v     4    5    6
          inv. 180 deg rotation - cart. axis [1,-1,0]            

   Cartesian axes

     site n.     atom                  positions (alat units)
         1           C   tau(   1) = (   0.3757402   0.3757402   0.8736803  )
         2           C   tau(   2) = (   0.5000706   0.0002101   0.0002101  )
         3           C   tau(   3) = (   0.5000485  -0.0001014   0.5000485  )
         4           C   tau(   4) = (   0.0002101   0.5000706   0.0002101  )
         5           C   tau(   5) = (  -0.0001014   0.5000485   0.5000485  )
         6           C   tau(   6) = (  -0.0001125  -0.0001125  -0.0001125  )
         7           C   tau(   7) = (   0.0002101   0.0002101   0.5000706  )
         8           C   tau(   8) = (   0.2502416   0.2502416  -0.0012010  )
         9           C   tau(   9) = (   0.2506951   0.2506951   0.4948995  )
        10           C   tau(  10) = (   0.2503856   0.7490365   0.0009894  )
        11           C   tau(  11) = (   0.2525049   0.7478357   0.5016752  )
        12           C   tau(  12) = (   0.7490365   0.2503856   0.0009894  )
        13           C   tau(  13) = (   0.7478357   0.2525049   0.5016752  )
        14           C   tau(  14) = (   0.7496389   0.7496389  -0.0002616  )
        15           C   tau(  15) = (   0.5000485   0.5000485  -0.0001014  )
        16           C   tau(  16) = (   0.7490868   0.7490868   0.4987417  )
        17           C   tau(  17) = (   0.5016752   0.2525049   0.7478357  )
        18           C   tau(  18) = (   0.5016752   0.7478357   0.2525049  )
        19           C   tau(  19) = (   0.4987417   0.7490868   0.7490868  )
        20           C   tau(  20) = (  -0.0012010   0.2502416   0.2502416  )
        21           C   tau(  21) = (   0.0009894   0.2503856   0.7490365  )
        22           C   tau(  22) = (   0.0009894   0.7490365   0.2503856  )
        23           C   tau(  23) = (  -0.0002616   0.7496389   0.7496389  )
        24           C   tau(  24) = (   0.2506951   0.4948995   0.2506951  )
        25           C   tau(  25) = (   0.2525049   0.5016752   0.7478357  )
        26           C   tau(  26) = (   0.2502416  -0.0012010   0.2502416  )
        27           C   tau(  27) = (   0.2503856   0.0009894   0.7490365  )
        28           C   tau(  28) = (   0.7478357   0.5016752   0.2525049  )
        29           C   tau(  29) = (   0.7490868   0.4987417   0.7490868  )
        30           C   tau(  30) = (   0.4948995   0.2506951   0.2506951  )
        31           C   tau(  31) = (   0.7490365   0.0009894   0.2503856  )
        32           C   tau(  32) = (   0.6246399   0.8743770   0.6246399  )
        33           C   tau(  33) = (   0.6348385   0.3670190   0.6348385  )
        34           C   tau(  34) = (   0.3758777   0.8762036   0.8762036  )
        35           C   tau(  35) = (   0.3757402   0.8736803   0.3757402  )
        36           C   tau(  36) = (   0.8762036   0.3758777   0.8762036  )
        37           C   tau(  37) = (   0.8736803   0.3757402   0.3757402  )
        38           C   tau(  38) = (   0.8746919   0.8746919   0.8746919  )
        39           C   tau(  39) = (   0.8762036   0.8762036   0.3758777  )
        40           C   tau(  40) = (   0.1253825   0.1253825   0.8742599  )
        41           C   tau(  41) = (   0.1239082   0.1239082   0.3748667  )
        42           C   tau(  42) = (   0.1243035   0.6245338   0.8758697  )
        43           C   tau(  43) = (   0.1270560   0.6229702   0.3763156  )
        44           C   tau(  44) = (   0.6245338   0.1243035   0.8758697  )
        45           C   tau(  45) = (   0.6229702   0.1270560   0.3763156  )
        46           C   tau(  46) = (   0.6245338   0.8758697   0.1243035  )
        47           C   tau(  47) = (   0.6246399   0.6246399   0.8743770  )
        48           C   tau(  48) = (   0.3748667   0.1239082   0.1239082  )
        49           C   tau(  49) = (   0.3763156   0.1270560   0.6229702  )
        50           C   tau(  50) = (   0.3763156   0.6229702   0.1270560  )
        51           C   tau(  51) = (   0.3670190   0.6348385   0.6348385  )
        52           C   tau(  52) = (   0.8742599   0.1253825   0.1253825  )
        53           C   tau(  53) = (   0.8758697   0.1243035   0.6245338  )
        54           C   tau(  54) = (   0.8758697   0.6245338   0.1243035  )
        55           C   tau(  55) = (   0.8743770   0.6246399   0.6246399  )
        56           C   tau(  56) = (   0.1239082   0.3748667   0.1239082  )
        57           C   tau(  57) = (   0.1270560   0.3763156   0.6229702  )
        58           C   tau(  58) = (   0.1253825   0.8742599   0.1253825  )
        59           C   tau(  59) = (   0.1243035   0.8758697   0.6245338  )
        60           C   tau(  60) = (   0.6229702   0.3763156   0.1270560  )
        61           C   tau(  61) = (   0.6348385   0.6348385   0.3670190  )
        62           C   tau(  62) = (   0.7496389  -0.0002616   0.7496389  )
        63           N   tau(  63) = (   0.3649724   0.3649724   0.3649724  )

   Crystallographic axes

     site n.     atom                  positions (cryst. coord.)
         1           C   tau(   1) = (  0.3757402  0.3757402  0.8736803  )
         2           C   tau(   2) = (  0.5000706  0.0002101  0.0002101  )
         3           C   tau(   3) = (  0.5000485 -0.0001014  0.5000485  )
         4           C   tau(   4) = (  0.0002101  0.5000706  0.0002101  )
         5           C   tau(   5) = ( -0.0001014  0.5000485  0.5000485  )
         6           C   tau(   6) = ( -0.0001125 -0.0001125 -0.0001125  )
         7           C   tau(   7) = (  0.0002101  0.0002101  0.5000706  )
         8           C   tau(   8) = (  0.2502416  0.2502416 -0.0012010  )
         9           C   tau(   9) = (  0.2506951  0.2506951  0.4948995  )
        10           C   tau(  10) = (  0.2503856  0.7490365  0.0009894  )
        11           C   tau(  11) = (  0.2525049  0.7478357  0.5016752  )
        12           C   tau(  12) = (  0.7490365  0.2503856  0.0009894  )
        13           C   tau(  13) = (  0.7478357  0.2525049  0.5016752  )
        14           C   tau(  14) = (  0.7496389  0.7496389 -0.0002616  )
        15           C   tau(  15) = (  0.5000485  0.5000485 -0.0001014  )
        16           C   tau(  16) = (  0.7490868  0.7490868  0.4987417  )
        17           C   tau(  17) = (  0.5016752  0.2525049  0.7478357  )
        18           C   tau(  18) = (  0.5016752  0.7478357  0.2525049  )
        19           C   tau(  19) = (  0.4987417  0.7490868  0.7490868  )
        20           C   tau(  20) = ( -0.0012010  0.2502416  0.2502416  )
        21           C   tau(  21) = (  0.0009894  0.2503856  0.7490365  )
        22           C   tau(  22) = (  0.0009894  0.7490365  0.2503856  )
        23           C   tau(  23) = ( -0.0002616  0.7496389  0.7496389  )
        24           C   tau(  24) = (  0.2506951  0.4948995  0.2506951  )
        25           C   tau(  25) = (  0.2525049  0.5016752  0.7478357  )
        26           C   tau(  26) = (  0.2502416 -0.0012010  0.2502416  )
        27           C   tau(  27) = (  0.2503856  0.0009894  0.7490365  )
        28           C   tau(  28) = (  0.7478357  0.5016752  0.2525049  )
        29           C   tau(  29) = (  0.7490868  0.4987417  0.7490868  )
        30           C   tau(  30) = (  0.4948995  0.2506951  0.2506951  )
        31           C   tau(  31) = (  0.7490365  0.0009894  0.2503856  )
        32           C   tau(  32) = (  0.6246399  0.8743770  0.6246399  )
        33           C   tau(  33) = (  0.6348385  0.3670190  0.6348385  )
        34           C   tau(  34) = (  0.3758777  0.8762036  0.8762036  )
        35           C   tau(  35) = (  0.3757402  0.8736803  0.3757402  )
        36           C   tau(  36) = (  0.8762036  0.3758777  0.8762036  )
        37           C   tau(  37) = (  0.8736803  0.3757402  0.3757402  )
        38           C   tau(  38) = (  0.8746919  0.8746919  0.8746919  )
        39           C   tau(  39) = (  0.8762036  0.8762036  0.3758777  )
        40           C   tau(  40) = (  0.1253825  0.1253825  0.8742599  )
        41           C   tau(  41) = (  0.1239082  0.1239082  0.3748667  )
        42           C   tau(  42) = (  0.1243035  0.6245338  0.8758697  )
        43           C   tau(  43) = (  0.1270560  0.6229702  0.3763156  )
        44           C   tau(  44) = (  0.6245338  0.1243035  0.8758697  )
        45           C   tau(  45) = (  0.6229702  0.1270560  0.3763156  )
        46           C   tau(  46) = (  0.6245338  0.8758697  0.1243035  )
        47           C   tau(  47) = (  0.6246399  0.6246399  0.8743770  )
        48           C   tau(  48) = (  0.3748667  0.1239082  0.1239082  )
        49           C   tau(  49) = (  0.3763156  0.1270560  0.6229702  )
        50           C   tau(  50) = (  0.3763156  0.6229702  0.1270560  )
        51           C   tau(  51) = (  0.3670190  0.6348385  0.6348385  )
        52           C   tau(  52) = (  0.8742599  0.1253825  0.1253825  )
        53           C   tau(  53) = (  0.8758697  0.1243035  0.6245338  )
        54           C   tau(  54) = (  0.8758697  0.6245338  0.1243035  )
        55           C   tau(  55) = (  0.8743770  0.6246399  0.6246399  )
        56           C   tau(  56) = (  0.1239082  0.3748667  0.1239082  )
        57           C   tau(  57) = (  0.1270560  0.3763156  0.6229702  )
        58           C   tau(  58) = (  0.1253825  0.8742599  0.1253825  )
        59           C   tau(  59) = (  0.1243035  0.8758697  0.6245338  )
        60           C   tau(  60) = (  0.6229702  0.3763156  0.1270560  )
        61           C   tau(  61) = (  0.6348385  0.6348385  0.3670190  )
        62           C   tau(  62) = (  0.7496389 -0.0002616  0.7496389  )
        63           N   tau(  63) = (  0.3649724  0.3649724  0.3649724  )

     number of k points=     6
                       cart. coord. in units 2pi/alat
        k(    1) = (   0.0000000   0.0000000   0.0000000), wk =   0.0370370
        k(    2) = (   0.0000000   0.0000000   0.3333333), wk =   0.2222222
        k(    3) = (   0.0000000   0.3333333   0.3333333), wk =   0.2222222
        k(    4) = (   0.3333333   0.3333333   0.3333333), wk =   0.0740741
        k(    5) = (  -0.3333333   0.0000000   0.3333333), wk =   0.2222222
        k(    6) = (   0.3333333  -0.3333333   0.3333333), wk =   0.2222222

                       cryst. coord.
        k(    1) = (   0.0000000   0.0000000   0.0000000), wk =   0.0370370
        k(    2) = (   0.0000000   0.0000000   0.3333333), wk =   0.2222222
        k(    3) = (   0.0000000   0.3333333   0.3333333), wk =   0.2222222
        k(    4) = (   0.3333333   0.3333333   0.3333333), wk =   0.0740741
        k(    5) = (  -0.3333333   0.0000000   0.3333333), wk =   0.2222222
        k(    6) = (   0.3333333  -0.3333333   0.3333333), wk =   0.2222222

     Dense  grid:   194039 G-vectors     FFT dimensions: (  72,  72,  72)

     Occupations read from input 

      Spin-up

        1.0000   1.0000   1.0000   1.0000   1.0000   1.0000   1.0000   1.0000
        1.0000   1.0000   1.0000   1.0000   1.0000   1.0000   1.0000   1.0000
        1.0000   1.0000   1.0000   1.0000   1.0000   1.0000   1.0000   1.0000
        1.0000   1.0000   1.0000   1.0000   1.0000   1.0000   1.0000   1.0000
        1.0000   1.0000   1.0000   1.0000   1.0000   1.0000   1.0000   1.0000
        1.0000   1.0000   1.0000   1.0000   1.0000   1.0000   1.0000   1.0000
        1.0000   1.0000   1.0000   1.0000   1.0000   1.0000   1.0000   1.0000
        1.0000   1.0000   1.0000   1.0000   1.0000   1.0000   1.0000   1.0000
        1.0000   1.0000   1.0000   1.0000   1.0000   1.0000   1.0000   1.0000
        1.0000   1.0000   1.0000   1.0000   1.0000   1.0000   1.0000   1.0000
        1.0000   1.0000   1.0000   1.0000   1.0000   1.0000   1.0000   1.0000
        1.0000   1.0000   1.0000   1.0000   1.0000   1.0000   1.0000   1.0000
        1.0000   1.0000   1.0000   1.0000   1.0000   1.0000   1.0000   1.0000
        1.0000   1.0000   1.0000   1.0000   1.0000   1.0000   1.0000   1.0000
        1.0000   1.0000   1.0000   1.0000   1.0000   1.0000   1.0000   1.0000
        1.0000   1.0000   1.0000   1.0000   1.0000   1.0000   1.0000   1.0000
        0.0000   0.0000   0.0000   0.0000   0.0000   0.0000   0.0000   0.0000
        0.0000   0.0000   0.0000   0.0000   0.0000   0.0000   0.0000   0.0000
        0.0000   0.0000   0.0000   0.0000   0.0000   0.0000   0.0000   0.0000

      Spin-down

        1.0000   1.0000   1.0000   1.0000   1.0000   1.0000   1.0000   1.0000
        1.0000   1.0000   1.0000   1.0000   1.0000   1.0000   1.0000   1.0000
        1.0000   1.0000   1.0000   1.0000   1.0000   1.0000   1.0000   1.0000
        1.0000   1.0000   1.0000   1.0000   1.0000   1.0000   1.0000   1.0000
        1.0000   1.0000   1.0000   1.0000   1.0000   1.0000   1.0000   1.0000
        1.0000   1.0000   1.0000   1.0000   1.0000   1.0000   1.0000   1.0000
        1.0000   1.0000   1.0000   1.0000   1.0000   1.0000   1.0000   1.0000
        1.0000   1.0000   1.0000   1.0000   1.0000   1.0000   1.0000   1.0000
        1.0000   1.0000   1.0000   1.0000   1.0000   1.0000   1.0000   1.0000
        1.0000   1.0000   1.0000   1.0000   1.0000   1.0000   1.0000   1.0000
        1.0000   1.0000   1.0000   1.0000   1.0000   1.0000   1.0000   1.0000
        1.0000   1.0000   1.0000   1.0000   1.0000   1.0000   1.0000   1.0000
        1.0000   1.0000   1.0000   1.0000   1.0000   1.0000   1.0000   1.0000
        1.0000   1.0000   1.0000   1.0000   1.0000   1.0000   1.0000   1.0000
        1.0000   1.0000   1.0000   1.0000   1.0000   1.0000   1.0000   1.0000
        1.0000   1.0000   1.0000   1.0000   1.0000   0.0000   1.0000   0.0000
        0.0000   0.0000   0.0000   0.0000   0.0000   0.0000   0.0000   0.0000
        0.0000   0.0000   0.0000   0.0000   0.0000   0.0000   0.0000   0.0000
        0.0000   0.0000   0.0000   0.0000   0.0000   0.0000   0.0000   0.0000

     Estimated max dynamical RAM per process >      60.23MB

     Estimated total allocated dynamical RAM >    5782.56MB
     Generating pointlists ...
     new r_m :   0.0855 (alat units)  1.1536 (a.u.) for type    1
     new r_m :   0.0855 (alat units)  1.1536 (a.u.) for type    2

     Initial potential from superposition of free atoms

     starting charge  252.99722, renormalised to  254.00000
     Starting wfc are  252 randomized atomic wfcs

     total cpu time spent up to now is        3.6 secs

     per-process dynamical memory:    59.5 Mb

     Self-consistent Calculation

     iteration #  1     ecut=    70.00 Ry     beta=0.50
     Davidson diagonalization with overlap
     ethr =  1.00E-02,  avg # of iterations =  3.0

     total cpu time spent up to now is        6.0 secs

     total energy              =    -722.44729664 Ry
     Harris-Foulkes estimate   =    -717.55172301 Ry
     estimated scf accuracy    <       6.66356367 Ry

     total magnetization       =     2.00 Bohr mag/cell
     absolute magnetization    =     3.67 Bohr mag/cell

     iteration #  2     ecut=    70.00 Ry     beta=0.50
     Davidson diagonalization with overlap
     ethr =  2.62E-03,  avg # of iterations =  2.0

     total cpu time spent up to now is        7.4 secs

     total energy              =    -724.25426188 Ry
     Harris-Foulkes estimate   =    -722.83454195 Ry
     estimated scf accuracy    <       1.47302982 Ry

     total magnetization       =     2.00 Bohr mag/cell
     absolute magnetization    =     2.51 Bohr mag/cell

     iteration #  3     ecut=    70.00 Ry     beta=0.50
     Davidson diagonalization with overlap
     ethr =  5.80E-04,  avg # of iterations =  7.1

     total cpu time spent up to now is       10.8 secs

     total energy              =    -724.52946073 Ry
     Harris-Foulkes estimate   =    -724.57166395 Ry
     estimated scf accuracy    <       0.72201937 Ry

     total magnetization       =     2.00 Bohr mag/cell
     absolute magnetization    =     2.14 Bohr mag/cell

     iteration #  4     ecut=    70.00 Ry     beta=0.50
     Davidson diagonalization with overlap
     ethr =  2.84E-04,  avg # of iterations =  6.1

     total cpu time spent up to now is       13.5 secs

     total energy              =    -724.67773711 Ry
     Harris-Foulkes estimate   =    -724.66675932 Ry
     estimated scf accuracy    <       0.02910578 Ry

     total magnetization       =     2.00 Bohr mag/cell
     absolute magnetization    =     2.14 Bohr mag/cell

     iteration #  5     ecut=    70.00 Ry     beta=0.50
     Davidson diagonalization with overlap
     c_bands:  1 eigenvalues not converged
     ethr =  1.15E-05,  avg # of iterations = 11.1

     total cpu time spent up to now is       19.4 secs

     total energy              =    -724.68619432 Ry
     Harris-Foulkes estimate   =    -724.68577504 Ry
     estimated scf accuracy    <       0.00616119 Ry

     total magnetization       =     2.00 Bohr mag/cell
     absolute magnetization    =     2.15 Bohr mag/cell

     iteration #  6     ecut=    70.00 Ry     beta=0.50
     Davidson diagonalization with overlap
     ethr =  2.43E-06,  avg # of iterations =  8.3

     total cpu time spent up to now is       23.6 secs

     total energy              =    -724.68743344 Ry
     Harris-Foulkes estimate   =    -724.68750894 Ry
     estimated scf accuracy    <       0.00064429 Ry

     total magnetization       =     2.00 Bohr mag/cell
     absolute magnetization    =     2.17 Bohr mag/cell

     iteration #  7     ecut=    70.00 Ry     beta=0.50
     Davidson diagonalization with overlap
     ethr =  2.54E-07,  avg # of iterations =  3.4

     total cpu time spent up to now is       25.6 secs

     total energy              =    -724.68764120 Ry
     Harris-Foulkes estimate   =    -724.68761499 Ry
     estimated scf accuracy    <       0.00008855 Ry

     total magnetization       =     2.00 Bohr mag/cell
     absolute magnetization    =     2.18 Bohr mag/cell

     iteration #  8     ecut=    70.00 Ry     beta=0.50
     Davidson diagonalization with overlap
     ethr =  3.49E-08,  avg # of iterations =  3.4

     total cpu time spent up to now is       27.8 secs

     total energy              =    -724.68768701 Ry
     Harris-Foulkes estimate   =    -724.68766921 Ry
     estimated scf accuracy    <       0.00001788 Ry

     total magnetization       =     2.00 Bohr mag/cell
     absolute magnetization    =     2.18 Bohr mag/cell

     iteration #  9     ecut=    70.00 Ry     beta=0.50
     Davidson diagonalization with overlap
     ethr =  7.04E-09,  avg # of iterations =  3.9

     total cpu time spent up to now is       29.9 secs

     total energy              =    -724.68770023 Ry
     Harris-Foulkes estimate   =    -724.68769107 Ry
     estimated scf accuracy    <       0.00000511 Ry

     total magnetization       =     2.00 Bohr mag/cell
     absolute magnetization    =     2.19 Bohr mag/cell

     iteration # 10     ecut=    70.00 Ry     beta=0.50
     Davidson diagonalization with overlap
     ethr =  2.01E-09,  avg # of iterations =  4.8
 
     Magnetic moment per site:
     atom:    1    charge:    1.8291    magn:    0.0068    constr:    0.0000
     atom:    2    charge:    1.8463    magn:    0.0081    constr:    0.0000
     atom:    3    charge:    1.8354    magn:   -0.0013    constr:    0.0000
     atom:    4    charge:    1.8463    magn:    0.0081    constr:    0.0000
     atom:    5    charge:    1.8354    magn:   -0.0013    constr:    0.0000
     atom:    6    charge:    1.8247    magn:   -0.0000    constr:    0.0000
     atom:    7    charge:    1.8463    magn:    0.0081    constr:    0.0000
     atom:    8    charge:    1.8287    magn:   -0.0008    constr:    0.0000
     atom:    9    charge:    1.8085    magn:    0.0001    constr:    0.0000
     atom:   10    charge:    1.8224    magn:   -0.0014    constr:    0.0000
     atom:   11    charge:    1.8340    magn:   -0.0026    constr:    0.0000
     atom:   12    charge:    1.8224    magn:   -0.0014    constr:    0.0000
     atom:   13    charge:    1.8340    magn:   -0.0026    constr:    0.0000
     atom:   14    charge:    1.8285    magn:   -0.0015    constr:    0.0000
     atom:   15    charge:    1.8354    magn:   -0.0013    constr:    0.0000
     atom:   16    charge:    1.8356    magn:    0.0007    constr:    0.0000
     atom:   17    charge:    1.8340    magn:   -0.0026    constr:    0.0000
     atom:   18    charge:    1.8340    magn:   -0.0026    constr:    0.0000
     atom:   19    charge:    1.8356    magn:    0.0007    constr:    0.0000
     atom:   20    charge:    1.8287    magn:   -0.0008    constr:    0.0000
     atom:   21    charge:    1.8224    magn:   -0.0014    constr:    0.0000
     atom:   22    charge:    1.8224    magn:   -0.0014    constr:    0.0000
     atom:   23    charge:    1.8285    magn:   -0.0015    constr:    0.0000
     atom:   24    charge:    1.8085    magn:    0.0001    constr:    0.0000
     atom:   25    charge:    1.8340    magn:   -0.0026    constr:    0.0000
     atom:   26    charge:    1.8287    magn:   -0.0008    constr:    0.0000
     atom:   27    charge:    1.8224    magn:   -0.0014    constr:    0.0000
     atom:   28    charge:    1.8340    magn:   -0.0026    constr:    0.0000
     atom:   29    charge:    1.8356    magn:    0.0007    constr:    0.0000
     atom:   30    charge:    1.8085    magn:    0.0001    constr:    0.0000
     atom:   31    charge:    1.8224    magn:   -0.0014    constr:    0.0000
     atom:   32    charge:    1.8286    magn:    0.0060    constr:    0.0000
     atom:   33    charge:    1.8531    magn:    0.2013    constr:    0.0000
     atom:   34    charge:    1.8266    magn:    0.0165    constr:    0.0000
     atom:   35    charge:    1.8291    magn:    0.0068    constr:    0.0000
     atom:   36    charge:    1.8266    magn:    0.0165    constr:    0.0000
     atom:   37    charge:    1.8291    magn:    0.0068    constr:    0.0000
     atom:   38    charge:    1.8305    magn:    0.0049    constr:    0.0000
     atom:   39    charge:    1.8266    magn:    0.0165    constr:    0.0000
     atom:   40    charge:    1.8313    magn:    0.0039    constr:    0.0000
     atom:   41    charge:    1.8371    magn:    0.0093    constr:    0.0000
     atom:   42    charge:    1.8282    magn:    0.0174    constr:    0.0000
     atom:   43    charge:    1.8247    magn:    0.0046    constr:    0.0000
     atom:   44    charge:    1.8282    magn:    0.0174    constr:    0.0000
     atom:   45    charge:    1.8247    magn:    0.0046    constr:    0.0000
     atom:   46    charge:    1.8282    magn:    0.0174    constr:    0.0000
     atom:   47    charge:    1.8286    magn:    0.0060    constr:    0.0000
     atom:   48    charge:    1.8371    magn:    0.0093    constr:    0.0000
     atom:   49    charge:    1.8247    magn:    0.0046    constr:    0.0000
     atom:   50    charge:    1.8247    magn:    0.0046    constr:    0.0000
     atom:   51    charge:    1.8531    magn:    0.2013    constr:    0.0000
     atom:   52    charge:    1.8313    magn:    0.0039    constr:    0.0000
     atom:   53    charge:    1.8282    magn:    0.0174    constr:    0.0000
     atom:   54    charge:    1.8282    magn:    0.0174    constr:    0.0000
     atom:   55    charge:    1.8286    magn:    0.0060    constr:    0.0000
     atom:   56    charge:    1.8371    magn:    0.0093    constr:    0.0000
     atom:   57    charge:    1.8247    magn:    0.0046    constr:    0.0000
     atom:   58    charge:    1.8313    magn:    0.0039    constr:    0.0000
     atom:   59    charge:    1.8282    magn:    0.0174    constr:    0.0000
     atom:   60    charge:    1.8247    magn:    0.0046    constr:    0.0000
     atom:   61    charge:    1.8531    magn:    0.2013    constr:    0.0000
     atom:   62    charge:    1.8285    magn:   -0.0015    constr:    0.0000
     atom:   63    charge:    2.8953    magn:    0.1280    constr:    0.0000

     total cpu time spent up to now is       32.7 secs

     End of self-consistent calculation

 ------ SPIN UP ------------


          k = 0.0000 0.0000 0.0000 ( 24207 PWs)   bands (ev):

    -8.6464  -7.2336  -6.2870  -6.2870  -6.1534  -6.1534  -5.9064  -5.0360
    -4.1535  -4.1535  -4.1339  -4.1339  -4.0245  -4.0245  -3.9794  -3.9628
    -3.8594  -3.8594  -3.3768  -2.9874  -2.6789  -2.6789  -2.1161  -0.4178
    -0.4178  -0.3637  -0.3358  -0.1727   0.1430   0.1430   0.2595   0.2595
     0.3484   0.5740   0.7777   0.7777   0.9681   0.9681   0.9965   1.0095
     1.0095   1.0744   1.3238   1.3238   2.9962   3.7556   3.7556   3.9803
     4.1976   4.2071   4.2071   4.2109   4.2499   4.2499   4.4034   4.4034
     4.4464   4.4464   4.5815   4.6211   4.6211   4.6220   4.6549   4.7209
     4.7209   4.8560   4.9195   4.9195   4.9994   5.1856   5.1856   5.2341
     5.3172   5.3172   5.3658   5.4092   5.4092   5.9819   5.9819   6.0051
     6.5680   6.5680   6.7034   6.8917   6.9899   6.9899   7.4370   8.2322
     8.2322   8.3504   8.4386   8.4386   8.5986   8.5986   8.7570   8.7739
     8.7773   8.7773   8.8453   8.8453   8.8818   9.2272   9.2289   9.2289
     9.6301   9.6301   9.8583   9.8583   9.8598   9.8912   9.9245   9.9301
     9.9301   9.9487   9.9576   9.9576  10.0866  10.0866  10.2499  10.2499
    10.3034  10.5332  12.0977  12.3946  12.3946  13.4971  14.9406  14.9406
    17.2293  17.3148  17.3148  17.4798  17.5097  17.5097  17.8078  17.8710
    17.8710  17.9625  17.9625  18.3013  18.8539  18.8539  18.9146  20.5291
    20.7379  20.7379  20.8015  20.8669  20.8670  20.9549  20.9550  20.9801

     occupation numbers 
     1.0000   1.0000   1.0000   1.0000   1.0000   1.0000   1.0000   1.0000
     1.0000   1.0000   1.0000   1.0000   1.0000   1.0000   1.0000   1.0000
     1.0000   1.0000   1.0000   1.0000   1.0000   1.0000   1.0000   1.0000
     1.0000   1.0000   1.0000   1.0000   1.0000   1.0000   1.0000   1.0000
     1.0000   1.0000   1.0000   1.0000   1.0000   1.0000   1.0000   1.0000
     1.0000   1.0000   1.0000   1.0000   1.0000   1.0000   1.0000   1.0000
     1.0000   1.0000   1.0000   1.0000   1.0000   1.0000   1.0000   1.0000
     1.0000   1.0000   1.0000   1.0000   1.0000   1.0000   1.0000   1.0000
     1.0000   1.0000   1.0000   1.0000   1.0000   1.0000   1.0000   1.0000
     1.0000   1.0000   1.0000   1.0000   1.0000   1.0000   1.0000   1.0000
     1.0000   1.0000   1.0000   1.0000   1.0000   1.0000   1.0000   1.0000
     1.0000   1.0000   1.0000   1.0000   1.0000   1.0000   1.0000   1.0000
     1.0000   1.0000   1.0000   1.0000   1.0000   1.0000   1.0000   1.0000
     1.0000   1.0000   1.0000   1.0000   1.0000   1.0000   1.0000   1.0000
     1.0000   1.0000   1.0000   1.0000   1.0000   1.0000   1.0000   1.0000
     1.0000   1.0000   1.0000   1.0000   1.0000   1.0000   1.0000   1.0000
     0.0000   0.0000   0.0000   0.0000   0.0000   0.0000   0.0000   0.0000
     0.0000   0.0000   0.0000   0.0000   0.0000   0.0000   0.0000   0.0000
     0.0000   0.0000   0.0000   0.0000   0.0000   0.0000   0.0000   0.0000

          k = 0.0000 0.0000 0.3333 ( 24280 PWs)   bands (ev):

    -8.4418  -7.6411  -6.7505  -6.0440  -5.9142  -5.8303  -5.5205  -5.2960
    -5.1543  -5.0047  -4.5413  -4.1559  -3.8142  -3.8136  -3.6866  -3.4524
    -3.2098  -3.1506  -2.9353  -2.6212  -2.5067  -2.3693  -2.3348  -1.8005
    -0.8906  -0.7001  -0.5686  -0.3626   0.1278   0.2037   0.3555   0.4074
     0.4745   0.5510   0.5612   0.6598   0.7224   0.7354   0.9913   1.4546
     1.9586   2.0004   2.1642   2.1875   2.4040   2.4712   2.4713   2.7433
     2.9325   2.9909   3.1508   3.1753   3.8472   3.9195   4.0479   4.0653
     4.2883   4.3301   4.4796   4.5334   5.0156   5.0700   5.1096   5.1992
     5.2016   5.5585   5.5948   5.6988   5.7579   6.0294   6.0791   6.1593
     6.1916   6.3085   6.3711   6.4616   6.5045   6.5755   6.6106   6.7322
     6.7674   6.8840   6.9047   6.9294   7.1378   7.1488   7.1769   7.2701
     7.3712   7.4707   7.6598   7.7611   7.8155   8.0596   8.1143   8.2753
     8.3142   8.4460   8.6169   8.7001   8.7625   9.0539   9.1746   9.3329
     9.3588   9.6082   9.6371   9.7026   9.8044   9.9118   9.9322   9.9378
     9.9560  10.0405  10.0729  10.1178  10.2023  10.2553  10.2672  10.3493
    10.3813  11.0226  11.6713  11.6919  11.9327  13.1677  14.6254  14.7872
    17.1531  17.2905  17.9380  18.2614  18.3302  18.4831  18.5014  18.5876
    18.8090  18.8268  18.9639  19.0614  19.1738  19.7914  19.8392  20.4108
    20.6354  20.6517  20.7743  20.7902  20.8195  20.8474  20.8980  20.9352

     occupation numbers 
     1.0000   1.0000   1.0000   1.0000   1.0000   1.0000   1.0000   1.0000
     1.0000   1.0000   1.0000   1.0000   1.0000   1.0000   1.0000   1.0000
     1.0000   1.0000   1.0000   1.0000   1.0000   1.0000   1.0000   1.0000
     1.0000   1.0000   1.0000   1.0000   1.0000   1.0000   1.0000   1.0000
     1.0000   1.0000   1.0000   1.0000   1.0000   1.0000   1.0000   1.0000
     1.0000   1.0000   1.0000   1.0000   1.0000   1.0000   1.0000   1.0000
     1.0000   1.0000   1.0000   1.0000   1.0000   1.0000   1.0000   1.0000
     1.0000   1.0000   1.0000   1.0000   1.0000   1.0000   1.0000   1.0000
     1.0000   1.0000   1.0000   1.0000   1.0000   1.0000   1.0000   1.0000
     1.0000   1.0000   1.0000   1.0000   1.0000   1.0000   1.0000   1.0000
     1.0000   1.0000   1.0000   1.0000   1.0000   1.0000   1.0000   1.0000
     1.0000   1.0000   1.0000   1.0000   1.0000   1.0000   1.0000   1.0000
     1.0000   1.0000   1.0000   1.0000   1.0000   1.0000   1.0000   1.0000
     1.0000   1.0000   1.0000   1.0000   1.0000   1.0000   1.0000   1.0000
     1.0000   1.0000   1.0000   1.0000   1.0000   1.0000   1.0000   1.0000
     1.0000   1.0000   1.0000   1.0000   1.0000   1.0000   1.0000   1.0000
     0.0000   0.0000   0.0000   0.0000   0.0000   0.0000   0.0000   0.0000
     0.0000   0.0000   0.0000   0.0000   0.0000   0.0000   0.0000   0.0000
     0.0000   0.0000   0.0000   0.0000   0.0000   0.0000   0.0000   0.0000

          k = 0.0000 0.3333 0.3333 ( 24236 PWs)   bands (ev):

    -8.2637  -7.4922  -7.2251  -6.6258  -6.0205  -5.6755  -5.3743  -5.0134
    -4.9844  -4.8620  -4.5160  -4.2537  -4.2232  -3.9387  -3.5712  -3.5262
    -2.8232  -2.3854  -2.3456  -2.3180  -2.1936  -2.1936  -2.0465  -1.8915
    -1.4840  -1.3298  -1.1041  -0.9180  -0.5662  -0.0693   0.0516   0.1300
     0.1656   0.4604   0.6694   1.1746   1.1872   1.3215   1.3624   1.3868
     1.4271   1.4657   1.9419   2.0521   2.1167   2.3827   2.7163   2.8101
     2.9538   3.4734   3.6363   3.6378   3.7603   3.8115   3.9592   4.0364
     4.1188   4.5293   4.6357   4.7873   5.0024   5.0386   5.1389   5.2932
     5.3121   5.5785   5.6231   5.6736   5.7310   5.9084   5.9981   6.0652
     6.1465   6.2341   6.2861   6.4722   6.5330   6.5887   6.6529   6.8329
     6.9224   6.9495   7.0007   7.0568   7.2195   7.2656   7.4768   7.6630
     7.9224   7.9305   8.0556   8.0601   8.1190   8.2297   8.2670   8.3062
     8.3599   8.4087   8.5218   8.6368   8.6716   8.7076   8.8386   8.8843
     9.0902   9.1752   9.2353   9.3040   9.4603   9.4665   9.5422   9.6445
     9.7095   9.7759   9.9060  10.0369  10.0619  10.1387  10.3685  10.6456
    10.9782  11.1974  11.5560  11.5582  12.2039  12.9425  14.5480  14.8684
    18.0126  18.1701  18.2014  18.2984  18.3469  18.7905  18.8546  18.9602
    19.1636  19.2037  19.4356  19.4786  19.6817  19.7974  19.9586  19.9892
    20.1760  20.4175  20.4690  20.4935  20.5549  20.5810  20.6109  20.6275

     occupation numbers 
     1.0000   1.0000   1.0000   1.0000   1.0000   1.0000   1.0000   1.0000
     1.0000   1.0000   1.0000   1.0000   1.0000   1.0000   1.0000   1.0000
     1.0000   1.0000   1.0000   1.0000   1.0000   1.0000   1.0000   1.0000
     1.0000   1.0000   1.0000   1.0000   1.0000   1.0000   1.0000   1.0000
     1.0000   1.0000   1.0000   1.0000   1.0000   1.0000   1.0000   1.0000
     1.0000   1.0000   1.0000   1.0000   1.0000   1.0000   1.0000   1.0000
     1.0000   1.0000   1.0000   1.0000   1.0000   1.0000   1.0000   1.0000
     1.0000   1.0000   1.0000   1.0000   1.0000   1.0000   1.0000   1.0000
     1.0000   1.0000   1.0000   1.0000   1.0000   1.0000   1.0000   1.0000
     1.0000   1.0000   1.0000   1.0000   1.0000   1.0000   1.0000   1.0000
     1.0000   1.0000   1.0000   1.0000   1.0000   1.0000   1.0000   1.0000
     1.0000   1.0000   1.0000   1.0000   1.0000   1.0000   1.0000   1.0000
     1.0000   1.0000   1.0000   1.0000   1.0000   1.0000   1.0000   1.0000
     1.0000   1.0000   1.0000   1.0000   1.0000   1.0000   1.0000   1.0000
     1.0000   1.0000   1.0000   1.0000   1.0000   1.0000   1.0000   1.0000
     1.0000   1.0000   1.0000   1.0000   1.0000   1.0000   1.0000   1.0000
     0.0000   0.0000   0.0000   0.0000   0.0000   0.0000   0.0000   0.0000
     0.0000   0.0000   0.0000   0.0000   0.0000   0.0000   0.0000   0.0000
     0.0000   0.0000   0.0000   0.0000   0.0000   0.0000   0.0000   0.0000

          k = 0.3333 0.3333 0.3333 ( 24303 PWs)   bands (ev):

    -8.1159  -7.3195  -6.9779  -6.9779  -6.3495  -6.2164  -6.2164  -5.4771
    -4.2961  -4.0321  -4.0321  -3.5848  -3.3857  -3.3857  -3.3620  -3.3620
    -3.2763  -2.9137  -2.6654  -2.6654  -1.9564  -1.9339  -1.9339  -1.5475
    -1.4621  -1.4621  -1.3937  -1.3937  -1.3081  -1.2147  -1.2147   0.0317
     0.8416   0.8416   0.9380   0.9673   0.9673   1.2647   1.8199   1.8199
     1.8725   1.8820   1.9866   1.9866   2.5535   2.5535   2.5880   2.7214
     2.7362   2.7362   3.1274   3.1274   3.5214   4.0530   4.2948   4.2948
     4.7866   4.8690   4.8690   4.9686   5.0848   5.0848   5.1332   5.2946
     5.2946   5.3911   5.4873   5.4873   5.5296   5.5296   5.5818   6.3336
     6.6515   6.6515   6.9559   6.9740   7.0078   7.0078   7.0919   7.0919
     7.2015   7.2015   7.2498   7.2522   7.2522   7.2578   7.3651   7.3651
     7.3890   7.4718   7.7249   7.7249   7.9084   7.9084   7.9606   8.0137
     8.1898   8.1898   8.2887   8.2887   8.3103   8.4530   8.4621   8.4621
     8.6802   8.6802   8.7410   9.0828   9.0853   9.5239   9.5239   9.7662
     9.7662  10.4663  10.4777  10.4777  10.5267  10.9432  10.9432  11.0886
    11.2718  11.2718  11.3163  11.6481  11.6481  12.8293  14.8478  14.8478
    18.0431  18.2206  18.2206  18.4511  18.6301  18.6301  19.1993  19.3622
    19.3622  19.5453  19.5453  19.5836  19.6195  19.6195  19.6650  19.7412
    19.7412  19.8619  19.9117  19.9117  19.9915  19.9916  20.0319  20.1629

     occupation numbers 
     1.0000   1.0000   1.0000   1.0000   1.0000   1.0000   1.0000   1.0000
     1.0000   1.0000   1.0000   1.0000   1.0000   1.0000   1.0000   1.0000
     1.0000   1.0000   1.0000   1.0000   1.0000   1.0000   1.0000   1.0000
     1.0000   1.0000   1.0000   1.0000   1.0000   1.0000   1.0000   1.0000
     1.0000   1.0000   1.0000   1.0000   1.0000   1.0000   1.0000   1.0000
     1.0000   1.0000   1.0000   1.0000   1.0000   1.0000   1.0000   1.0000
     1.0000   1.0000   1.0000   1.0000   1.0000   1.0000   1.0000   1.0000
     1.0000   1.0000   1.0000   1.0000   1.0000   1.0000   1.0000   1.0000
     1.0000   1.0000   1.0000   1.0000   1.0000   1.0000   1.0000   1.0000
     1.0000   1.0000   1.0000   1.0000   1.0000   1.0000   1.0000   1.0000
     1.0000   1.0000   1.0000   1.0000   1.0000   1.0000   1.0000   1.0000
     1.0000   1.0000   1.0000   1.0000   1.0000   1.0000   1.0000   1.0000
     1.0000   1.0000   1.0000   1.0000   1.0000   1.0000   1.0000   1.0000
     1.0000   1.0000   1.0000   1.0000   1.0000   1.0000   1.0000   1.0000
     1.0000   1.0000   1.0000   1.0000   1.0000   1.0000   1.0000   1.0000
     1.0000   1.0000   1.0000   1.0000   1.0000   1.0000   1.0000   1.0000
     0.0000   0.0000   0.0000   0.0000   0.0000   0.0000   0.0000   0.0000
     0.0000   0.0000   0.0000   0.0000   0.0000   0.0000   0.0000   0.0000
     0.0000   0.0000   0.0000   0.0000   0.0000   0.0000   0.0000   0.0000

          k =-0.3333 0.0000 0.3333 ( 24236 PWs)   bands (ev):

    -8.2508  -7.5930  -7.1043  -6.6170  -6.0708  -5.6821  -5.3974  -5.0493
    -4.9321  -4.7551  -4.5388  -4.3194  -4.2273  -4.0534  -3.6033  -3.3369
    -2.8103  -2.4364  -2.3781  -2.2824  -2.2087  -2.1551  -2.1016  -1.6764
    -1.6319  -1.3215  -1.1185  -1.0056  -0.5974  -0.0323   0.0579   0.1068
     0.2759   0.4870   0.8791   1.0199   1.1735   1.2069   1.2361   1.3812
     1.4846   1.5813   1.8455   1.8748   2.1263   2.5783   2.6482   2.8643
     2.9536   3.4545   3.6225   3.7009   3.7491   3.9055   4.0055   4.1237
     4.1651   4.3773   4.5495   4.7819   4.9522   4.9830   5.1673   5.2426
     5.3997   5.5465   5.6223   5.6832   5.7835   5.9897   6.0707   6.1227
     6.1705   6.2289   6.2728   6.3967   6.4510   6.6164   6.6258   6.7924
     6.8818   6.9584   7.0143   7.0907   7.2172   7.3621   7.4809   7.6406
     7.8179   7.8647   7.9423   8.0726   8.1712   8.2089   8.2667   8.2736
     8.3591   8.4326   8.5415   8.5791   8.7372   8.7497   8.8948   8.9597
     9.0638   9.1271   9.2216   9.3166   9.4242   9.4842   9.5152   9.6601
     9.7168   9.7541   9.9430  10.0359  10.0747  10.1003  10.4934  10.7291
    10.8855  11.1155  11.4453  11.5693  12.1937  13.2416  14.4679  14.7550
    18.0001  18.1826  18.2505  18.3034  18.3522  18.7837  18.9187  19.0900
    19.0999  19.2628  19.3234  19.4736  19.6889  19.8231  19.8602  19.9994
    20.2181  20.3290  20.3966  20.5031  20.5373  20.5787  20.6357  20.6790

     occupation numbers 
     1.0000   1.0000   1.0000   1.0000   1.0000   1.0000   1.0000   1.0000
     1.0000   1.0000   1.0000   1.0000   1.0000   1.0000   1.0000   1.0000
     1.0000   1.0000   1.0000   1.0000   1.0000   1.0000   1.0000   1.0000
     1.0000   1.0000   1.0000   1.0000   1.0000   1.0000   1.0000   1.0000
     1.0000   1.0000   1.0000   1.0000   1.0000   1.0000   1.0000   1.0000
     1.0000   1.0000   1.0000   1.0000   1.0000   1.0000   1.0000   1.0000
     1.0000   1.0000   1.0000   1.0000   1.0000   1.0000   1.0000   1.0000
     1.0000   1.0000   1.0000   1.0000   1.0000   1.0000   1.0000   1.0000
     1.0000   1.0000   1.0000   1.0000   1.0000   1.0000   1.0000   1.0000
     1.0000   1.0000   1.0000   1.0000   1.0000   1.0000   1.0000   1.0000
     1.0000   1.0000   1.0000   1.0000   1.0000   1.0000   1.0000   1.0000
     1.0000   1.0000   1.0000   1.0000   1.0000   1.0000   1.0000   1.0000
     1.0000   1.0000   1.0000   1.0000   1.0000   1.0000   1.0000   1.0000
     1.0000   1.0000   1.0000   1.0000   1.0000   1.0000   1.0000   1.0000
     1.0000   1.0000   1.0000   1.0000   1.0000   1.0000   1.0000   1.0000
     1.0000   1.0000   1.0000   1.0000   1.0000   1.0000   1.0000   1.0000
     0.0000   0.0000   0.0000   0.0000   0.0000   0.0000   0.0000   0.0000
     0.0000   0.0000   0.0000   0.0000   0.0000   0.0000   0.0000   0.0000
     0.0000   0.0000   0.0000   0.0000   0.0000   0.0000   0.0000   0.0000

          k = 0.3333-0.3333 0.3333 ( 24303 PWs)   bands (ev):

    -8.0949  -7.4413  -6.9785  -6.8300  -6.4988  -6.2148  -5.9945  -5.5247
    -4.6031  -4.0356  -3.9475  -3.7242  -3.4317  -3.3734  -3.3301  -3.1959
    -3.0785  -2.8948  -2.6947  -2.4380  -2.1063  -1.9030  -1.8622  -1.7311
    -1.4971  -1.4822  -1.4127  -1.3555  -1.3492  -1.2509  -1.1544  -0.1129
     0.7145   0.8817   0.9429   0.9711   1.0521   1.4021   1.6931   1.7592
     1.8589   1.9258   2.0430   2.2273   2.5528   2.5874   2.6825   2.7107
     2.7288   2.7737   2.8978   3.1702   3.4745   3.9509   4.2108   4.3163
     4.7510   4.7521   4.8348   4.9994   5.0046   5.0643   5.1796   5.2510
     5.2721   5.4246   5.4369   5.5122   5.6539   5.7744   5.8298   6.4082
     6.5931   6.6978   6.9050   6.9177   6.9661   7.0305   7.0773   7.0859
     7.1585   7.1805   7.2350   7.2559   7.2784   7.3125   7.3439   7.3562
     7.3879   7.4408   7.7226   7.7352   7.8036   7.9203   7.9487   7.9540
     8.1301   8.1615   8.2714   8.2832   8.3808   8.3836   8.4112   8.5119
     8.6886   8.7363   8.9325   8.9894   9.0815   9.5064   9.5840   9.5934
     9.8722  10.3825  10.4242  10.5295  10.5386  10.8610  10.9236  11.1206
    11.2240  11.2472  11.3055  11.7068  11.7366  13.2165  14.5386  14.8376
    18.0589  18.2537  18.3185  18.5146  18.6484  18.7090  19.1322  19.3631
    19.4242  19.4877  19.5165  19.5508  19.5995  19.6231  19.6450  19.7201
    19.7427  19.7823  19.8992  19.9057  19.9874  19.9891  20.0377  20.1482

     occupation numbers 
     1.0000   1.0000   1.0000   1.0000   1.0000   1.0000   1.0000   1.0000
     1.0000   1.0000   1.0000   1.0000   1.0000   1.0000   1.0000   1.0000
     1.0000   1.0000   1.0000   1.0000   1.0000   1.0000   1.0000   1.0000
     1.0000   1.0000   1.0000   1.0000   1.0000   1.0000   1.0000   1.0000
     1.0000   1.0000   1.0000   1.0000   1.0000   1.0000   1.0000   1.0000
     1.0000   1.0000   1.0000   1.0000   1.0000   1.0000   1.0000   1.0000
     1.0000   1.0000   1.0000   1.0000   1.0000   1.0000   1.0000   1.0000
     1.0000   1.0000   1.0000   1.0000   1.0000   1.0000   1.0000   1.0000
     1.0000   1.0000   1.0000   1.0000   1.0000   1.0000   1.0000   1.0000
     1.0000   1.0000   1.0000   1.0000   1.0000   1.0000   1.0000   1.0000
     1.0000   1.0000   1.0000   1.0000   1.0000   1.0000   1.0000   1.0000
     1.0000   1.0000   1.0000   1.0000   1.0000   1.0000   1.0000   1.0000
     1.0000   1.0000   1.0000   1.0000   1.0000   1.0000   1.0000   1.0000
     1.0000   1.0000   1.0000   1.0000   1.0000   1.0000   1.0000   1.0000
     1.0000   1.0000   1.0000   1.0000   1.0000   1.0000   1.0000   1.0000
     1.0000   1.0000   1.0000   1.0000   1.0000   1.0000   1.0000   1.0000
     0.0000   0.0000   0.0000   0.0000   0.0000   0.0000   0.0000   0.0000
     0.0000   0.0000   0.0000   0.0000   0.0000   0.0000   0.0000   0.0000
     0.0000   0.0000   0.0000   0.0000   0.0000   0.0000   0.0000   0.0000

 ------ SPIN DOWN ----------


          k = 0.0000 0.0000 0.0000 ( 24207 PWs)   bands (ev):

    -8.6056  -7.1541  -6.2693  -6.2693  -6.1196  -6.1196  -5.8692  -4.9905
    -4.1349  -4.1349  -4.1189  -4.1189  -3.9785  -3.9785  -3.9597  -3.9469
    -3.8173  -3.8173  -3.3329  -2.9590  -2.6316  -2.6316  -1.9964  -0.4000
    -0.4000  -0.3436  -0.3006  -0.1004   0.1612   0.1612   0.2917   0.2917
     0.3696   0.6111   0.7926   0.7926   0.9936   0.9936   1.0215   1.0255
     1.0255   1.0901   1.4630   1.4630   3.1097   3.7911   3.7911   4.0137
     4.2282   4.2325   4.2325   4.2378   4.2730   4.2730   4.4330   4.4330
     4.4802   4.4802   4.5985   4.6393   4.6393   4.6507   4.6680   4.7559
     4.7559   4.8789   4.9467   4.9467   5.0861   5.2193   5.2193   5.2669
     5.3286   5.3286   5.3750   5.4555   5.4555   6.0342   6.0342   6.0593
     6.5971   6.5971   6.7299   6.9678   7.0670   7.0670   7.6142   8.2720
     8.2720   8.3902   8.4677   8.4677   8.6314   8.6314   8.7932   8.7932
     8.7942   8.8260   8.8880   8.8880   8.8983   9.2595   9.2595   9.2623
     9.6619   9.6619   9.8687   9.8753   9.8753   9.9051   9.9533   9.9533
     9.9558   9.9664   9.9818   9.9818  10.1203  10.1203  10.3005  10.3005
    10.3505  11.0393  12.4592  12.5086  12.5086  14.1647  16.0338  16.0338
    17.2762  17.3336  17.3336  17.5036  17.5555  17.5555  17.8438  17.8934
    17.8934  17.9958  17.9958  18.4074  18.9312  18.9312  18.9633  20.5985
    20.7522  20.7522  20.8131  20.8899  20.8899  20.9761  20.9763  21.0005

     occupation numbers 
     1.0000   1.0000   1.0000   1.0000   1.0000   1.0000   1.0000   1.0000
     1.0000   1.0000   1.0000   1.0000   1.0000   1.0000   1.0000   1.0000
     1.0000   1.0000   1.0000   1.0000   1.0000   1.0000   1.0000   1.0000
     1.0000   1.0000   1.0000   1.0000   1.0000   1.0000   1.0000   1.0000
     1.0000   1.0000   1.0000   1.0000   1.0000   1.0000   1.0000   1.0000
     1.0000   1.0000   1.0000   1.0000   1.0000   1.0000   1.0000   1.0000
     1.0000   1.0000   1.0000   1.0000   1.0000   1.0000   1.0000   1.0000
     1.0000   1.0000   1.0000   1.0000   1.0000   1.0000   1.0000   1.0000
     1.0000   1.0000   1.0000   1.0000   1.0000   1.0000   1.0000   1.0000
     1.0000   1.0000   1.0000   1.0000   1.0000   1.0000   1.0000   1.0000
     1.0000   1.0000   1.0000   1.0000   1.0000   1.0000   1.0000   1.0000
     1.0000   1.0000   1.0000   1.0000   1.0000   1.0000   1.0000   1.0000
     1.0000   1.0000   1.0000   1.0000   1.0000   1.0000   1.0000   1.0000
     1.0000   1.0000   1.0000   1.0000   1.0000   1.0000   1.0000   1.0000
     1.0000   1.0000   1.0000   1.0000   1.0000   1.0000   1.0000   1.0000
     1.0000   1.0000   1.0000   1.0000   1.0000   0.0000   1.0000   0.0000
     0.0000   0.0000   0.0000   0.0000   0.0000   0.0000   0.0000   0.0000
     0.0000   0.0000   0.0000   0.0000   0.0000   0.0000   0.0000   0.0000
     0.0000   0.0000   0.0000   0.0000   0.0000   0.0000   0.0000   0.0000

          k = 0.0000 0.0000 0.3333 ( 24280 PWs)   bands (ev):

    -8.3968  -7.5980  -6.6842  -6.0264  -5.8834  -5.8047  -5.4979  -5.2782
    -5.1124  -4.9563  -4.5064  -4.1295  -3.7890  -3.7767  -3.6586  -3.4254
    -3.1711  -3.1087  -2.8963  -2.5928  -2.4878  -2.3265  -2.2884  -1.7201
    -0.8387  -0.6806  -0.5329  -0.3051   0.1687   0.2221   0.3786   0.4270
     0.5003   0.5858   0.5859   0.6858   0.7561   0.7664   1.0714   1.5135
     1.9945   2.0220   2.2015   2.2185   2.4497   2.5069   2.5106   2.7723
     2.9685   3.0122   3.2334   3.2440   3.8688   3.9576   4.0727   4.0840
     4.3084   4.3806   4.5199   4.5729   5.0540   5.1361   5.1547   5.2287
     5.2347   5.5943   5.6192   5.7345   5.7986   6.0638   6.1062   6.2051
     6.2189   6.3281   6.4007   6.4833   6.5461   6.6338   6.6404   6.7589
     6.7947   6.9210   6.9347   6.9704   7.1681   7.1739   7.2118   7.3047
     7.4203   7.5149   7.7442   7.8022   7.8656   8.0824   8.1454   8.3151
     8.3367   8.4688   8.6798   8.7569   8.7985   9.1193   9.2557   9.3789
     9.3973   9.6472   9.6663   9.7199   9.8395   9.9255   9.9587   9.9650
    10.0015  10.0715  10.1327  10.1361  10.2365  10.2987  10.3032  10.4281
    10.4314  11.3054  11.7550  11.8087  12.1205  14.0260  15.7271  15.9245
    17.1912  17.3214  17.9657  18.2970  18.3480  18.5056  18.5242  18.6300
    18.8467  18.8477  19.0052  19.1027  19.2603  19.8485  19.8855  20.4669
    20.6524  20.6881  20.7923  20.8068  20.8351  20.8755  20.9260  20.9566

     occupation numbers 
     1.0000   1.0000   1.0000   1.0000   1.0000   1.0000   1.0000   1.0000
     1.0000   1.0000   1.0000   1.0000   1.0000   1.0000   1.0000   1.0000
     1.0000   1.0000   1.0000   1.0000   1.0000   1.0000   1.0000   1.0000
     1.0000   1.0000   1.0000   1.0000   1.0000   1.0000   1.0000   1.0000
     1.0000   1.0000   1.0000   1.0000   1.0000   1.0000   1.0000   1.0000
     1.0000   1.0000   1.0000   1.0000   1.0000   1.0000   1.0000   1.0000
     1.0000   1.0000   1.0000   1.0000   1.0000   1.0000   1.0000   1.0000
     1.0000   1.0000   1.0000   1.0000   1.0000   1.0000   1.0000   1.0000
     1.0000   1.0000   1.0000   1.0000   1.0000   1.0000   1.0000   1.0000
     1.0000   1.0000   1.0000   1.0000   1.0000   1.0000   1.0000   1.0000
     1.0000   1.0000   1.0000   1.0000   1.0000   1.0000   1.0000   1.0000
     1.0000   1.0000   1.0000   1.0000   1.0000   1.0000   1.0000   1.0000
     1.0000   1.0000   1.0000   1.0000   1.0000   1.0000   1.0000   1.0000
     1.0000   1.0000   1.0000   1.0000   1.0000   1.0000   1.0000   1.0000
     1.0000   1.0000   1.0000   1.0000   1.0000   1.0000   1.0000   1.0000
     1.0000   1.0000   1.0000   1.0000   1.0000   0.0000   1.0000   0.0000
     0.0000   0.0000   0.0000   0.0000   0.0000   0.0000   0.0000   0.0000
     0.0000   0.0000   0.0000   0.0000   0.0000   0.0000   0.0000   0.0000
     0.0000   0.0000   0.0000   0.0000   0.0000   0.0000   0.0000   0.0000

          k = 0.0000 0.3333 0.3333 ( 24236 PWs)   bands (ev):

    -8.2121  -7.4451  -7.1991  -6.5850  -5.9824  -5.6466  -5.3378  -4.9816
    -4.9628  -4.8370  -4.4724  -4.2280  -4.1950  -3.8916  -3.5239  -3.4970
    -2.7845  -2.3643  -2.3173  -2.2966  -2.1633  -2.1570  -2.0011  -1.8492
    -1.4511  -1.3013  -1.0575  -0.8706  -0.4872  -0.0233   0.0714   0.1523
     0.2019   0.5021   0.7143   1.1985   1.2086   1.3413   1.3960   1.4196
     1.4645   1.5099   1.9698   2.1049   2.1798   2.4429   2.7403   2.8557
     2.9984   3.5300   3.6611   3.6647   3.7961   3.8315   4.0019   4.0610
     4.1686   4.5945   4.6666   4.8394   5.0378   5.0598   5.1716   5.3226
     5.3551   5.6196   5.6504   5.7230   5.7737   5.9371   6.0356   6.1034
     6.1590   6.2679   6.3166   6.5079   6.5536   6.6207   6.6869   6.8698
     6.9438   6.9739   7.0592   7.0861   7.2606   7.3076   7.5332   7.7193
     7.9627   8.0006   8.0865   8.0890   8.1413   8.2602   8.2966   8.3432
     8.3972   8.4337   8.5621   8.6646   8.7253   8.7337   8.8907   8.9172
     9.1157   9.2278   9.2644   9.3493   9.4991   9.5012   9.6047   9.6706
     9.7560   9.8178   9.9413  10.0888  10.0927  10.1698  10.4460  10.7827
    11.0794  11.2614  11.5851  11.8555  12.2733  13.8918  15.6679  15.9704
    18.0616  18.1981  18.2400  18.3213  18.3788  18.8161  18.8764  18.9930
    19.2010  19.2363  19.4699  19.5042  19.7086  19.8386  19.9884  20.0297
    20.2076  20.4432  20.4890  20.5179  20.5834  20.6119  20.6287  20.6561

     occupation numbers 
     1.0000   1.0000   1.0000   1.0000   1.0000   1.0000   1.0000   1.0000
     1.0000   1.0000   1.0000   1.0000   1.0000   1.0000   1.0000   1.0000
     1.0000   1.0000   1.0000   1.0000   1.0000   1.0000   1.0000   1.0000
     1.0000   1.0000   1.0000   1.0000   1.0000   1.0000   1.0000   1.0000
     1.0000   1.0000   1.0000   1.0000   1.0000   1.0000   1.0000   1.0000
     1.0000   1.0000   1.0000   1.0000   1.0000   1.0000   1.0000   1.0000
     1.0000   1.0000   1.0000   1.0000   1.0000   1.0000   1.0000   1.0000
     1.0000   1.0000   1.0000   1.0000   1.0000   1.0000   1.0000   1.0000
     1.0000   1.0000   1.0000   1.0000   1.0000   1.0000   1.0000   1.0000
     1.0000   1.0000   1.0000   1.0000   1.0000   1.0000   1.0000   1.0000
     1.0000   1.0000   1.0000   1.0000   1.0000   1.0000   1.0000   1.0000
     1.0000   1.0000   1.0000   1.0000   1.0000   1.0000   1.0000   1.0000
     1.0000   1.0000   1.0000   1.0000   1.0000   1.0000   1.0000   1.0000
     1.0000   1.0000   1.0000   1.0000   1.0000   1.0000   1.0000   1.0000
     1.0000   1.0000   1.0000   1.0000   1.0000   1.0000   1.0000   1.0000
     1.0000   1.0000   1.0000   1.0000   1.0000   0.0000   1.0000   0.0000
     0.0000   0.0000   0.0000   0.0000   0.0000   0.0000   0.0000   0.0000
     0.0000   0.0000   0.0000   0.0000   0.0000   0.0000   0.0000   0.0000
     0.0000   0.0000   0.0000   0.0000   0.0000   0.0000   0.0000   0.0000

          k = 0.3333 0.3333 0.3333 ( 24303 PWs)   bands (ev):

    -8.0557  -7.2744  -6.9528  -6.9528  -6.3135  -6.1879  -6.1879  -5.4277
    -4.2249  -4.0080  -4.0080  -3.5442  -3.3685  -3.3685  -3.3222  -3.3222
    -3.2569  -2.8898  -2.6212  -2.6212  -1.9316  -1.9139  -1.9139  -1.5244
    -1.4436  -1.4436  -1.3702  -1.3702  -1.2862  -1.1239  -1.1239   0.1601
     0.8649   0.8649   0.9942   0.9942   1.0029   1.3021   1.8462   1.8462
     1.8960   1.9248   2.0203   2.0203   2.5789   2.5789   2.6168   2.7387
     2.7638   2.7638   3.2121   3.2121   3.5600   4.1288   4.3216   4.3216
     4.8486   4.9112   4.9112   4.9851   5.1077   5.1077   5.1874   5.3255
     5.3255   5.4183   5.5148   5.5148   5.5630   5.5630   5.6369   6.4274
     6.6999   6.6999   6.9678   7.0177   7.0321   7.0321   7.1153   7.1153
     7.2218   7.2218   7.2703   7.2765   7.2768   7.2768   7.3970   7.3970
     7.4153   7.5323   7.7654   7.7654   7.9350   7.9350   7.9826   8.0336
     8.2226   8.2226   8.3144   8.3144   8.3304   8.4685   8.5127   8.5127
     8.7144   8.7144   8.8446   9.1215   9.1618   9.5745   9.5745   9.8435
     9.8435  10.5037  10.5037  10.5499  10.6130  10.9965  10.9965  11.2983
    11.2983  11.3401  11.5705  11.6884  11.6884  13.7389  15.9848  15.9848
    18.1043  18.2444  18.2444  18.4773  18.6601  18.6601  19.2328  19.3765
    19.3765  19.5685  19.5685  19.5976  19.6422  19.6422  19.6862  19.7591
    19.7591  19.8874  19.9384  19.9384  20.0304  20.0305  20.0461  20.1934

     occupation numbers 
     1.0000   1.0000   1.0000   1.0000   1.0000   1.0000   1.0000   1.0000
     1.0000   1.0000   1.0000   1.0000   1.0000   1.0000   1.0000   1.0000
     1.0000   1.0000   1.0000   1.0000   1.0000   1.0000   1.0000   1.0000
     1.0000   1.0000   1.0000   1.0000   1.0000   1.0000   1.0000   1.0000
     1.0000   1.0000   1.0000   1.0000   1.0000   1.0000   1.0000   1.0000
     1.0000   1.0000   1.0000   1.0000   1.0000   1.0000   1.0000   1.0000
     1.0000   1.0000   1.0000   1.0000   1.0000   1.0000   1.0000   1.0000
     1.0000   1.0000   1.0000   1.0000   1.0000   1.0000   1.0000   1.0000
     1.0000   1.0000   1.0000   1.0000   1.0000   1.0000   1.0000   1.0000
     1.0000   1.0000   1.0000   1.0000   1.0000   1.0000   1.0000   1.0000
     1.0000   1.0000   1.0000   1.0000   1.0000   1.0000   1.0000   1.0000
     1.0000   1.0000   1.0000   1.0000   1.0000   1.0000   1.0000   1.0000
     1.0000   1.0000   1.0000   1.0000   1.0000   1.0000   1.0000   1.0000
     1.0000   1.0000   1.0000   1.0000   1.0000   1.0000   1.0000   1.0000
     1.0000   1.0000   1.0000   1.0000   1.0000   1.0000   1.0000   1.0000
     1.0000   1.0000   1.0000   1.0000   1.0000   0.0000   1.0000   0.0000
     0.0000   0.0000   0.0000   0.0000   0.0000   0.0000   0.0000   0.0000
     0.0000   0.0000   0.0000   0.0000   0.0000   0.0000   0.0000   0.0000
     0.0000   0.0000   0.0000   0.0000   0.0000   0.0000   0.0000   0.0000

          k =-0.3333 0.0000 0.3333 ( 24236 PWs)   bands (ev):

    -8.1983  -7.5527  -7.0745  -6.5711  -6.0354  -5.6568  -5.3580  -5.0320
    -4.8936  -4.7192  -4.5158  -4.2837  -4.1923  -4.0207  -3.5618  -3.2988
    -2.7663  -2.4122  -2.3599  -2.2602  -2.1732  -2.1215  -2.0674  -1.6550
    -1.5518  -1.2888  -1.0851  -0.9509  -0.5328  -0.0149   0.0880   0.1379
     0.3192   0.5339   0.9455   1.0494   1.1960   1.2271   1.2687   1.4013
     1.5144   1.6260   1.8929   1.9045   2.1528   2.6436   2.7001   2.9062
     3.0017   3.4994   3.6613   3.7215   3.7785   3.9316   4.0452   4.1558
     4.2273   4.4320   4.5855   4.8337   4.9734   5.0150   5.1996   5.2773
     5.4390   5.5880   5.6483   5.7254   5.8292   6.0221   6.0867   6.1553
     6.1992   6.2591   6.3107   6.4285   6.4859   6.6444   6.6534   6.8123
     6.9052   6.9838   7.0506   7.1420   7.2696   7.4184   7.5386   7.6808
     7.9054   7.9161   7.9709   8.0886   8.2001   8.2316   8.2897   8.3068
     8.3946   8.4712   8.5845   8.6174   8.7698   8.7907   8.9265   8.9858
     9.1102   9.1607   9.2654   9.3600   9.4704   9.5295   9.5406   9.7019
     9.7542   9.8140   9.9728  10.0687  10.1092  10.1399  10.5415  10.9493
    10.9794  11.1944  11.5139  11.7382  12.3569  14.1232  15.5708  15.8706
    18.0381  18.2096  18.2790  18.3303  18.3833  18.8068  18.9429  19.1156
    19.1348  19.2900  19.3880  19.5061  19.7189  19.8675  19.8906  20.0467
    20.2506  20.3612  20.4282  20.5225  20.5578  20.6036  20.6582  20.7036

     occupation numbers 
     1.0000   1.0000   1.0000   1.0000   1.0000   1.0000   1.0000   1.0000
     1.0000   1.0000   1.0000   1.0000   1.0000   1.0000   1.0000   1.0000
     1.0000   1.0000   1.0000   1.0000   1.0000   1.0000   1.0000   1.0000
     1.0000   1.0000   1.0000   1.0000   1.0000   1.0000   1.0000   1.0000
     1.0000   1.0000   1.0000   1.0000   1.0000   1.0000   1.0000   1.0000
     1.0000   1.0000   1.0000   1.0000   1.0000   1.0000   1.0000   1.0000
     1.0000   1.0000   1.0000   1.0000   1.0000   1.0000   1.0000   1.0000
     1.0000   1.0000   1.0000   1.0000   1.0000   1.0000   1.0000   1.0000
     1.0000   1.0000   1.0000   1.0000   1.0000   1.0000   1.0000   1.0000
     1.0000   1.0000   1.0000   1.0000   1.0000   1.0000   1.0000   1.0000
     1.0000   1.0000   1.0000   1.0000   1.0000   1.0000   1.0000   1.0000
     1.0000   1.0000   1.0000   1.0000   1.0000   1.0000   1.0000   1.0000
     1.0000   1.0000   1.0000   1.0000   1.0000   1.0000   1.0000   1.0000
     1.0000   1.0000   1.0000   1.0000   1.0000   1.0000   1.0000   1.0000
     1.0000   1.0000   1.0000   1.0000   1.0000   1.0000   1.0000   1.0000
     1.0000   1.0000   1.0000   1.0000   1.0000   0.0000   1.0000   0.0000
     0.0000   0.0000   0.0000   0.0000   0.0000   0.0000   0.0000   0.0000
     0.0000   0.0000   0.0000   0.0000   0.0000   0.0000   0.0000   0.0000
     0.0000   0.0000   0.0000   0.0000   0.0000   0.0000   0.0000   0.0000

          k = 0.3333-0.3333 0.3333 ( 24303 PWs)   bands (ev):

    -8.0327  -7.4029  -6.9536  -6.8021  -6.4713  -6.1858  -5.9497  -5.4798
    -4.5412  -4.0136  -3.9250  -3.6851  -3.4098  -3.3477  -3.3133  -3.1623
    -3.0483  -2.8669  -2.6540  -2.3831  -2.0578  -1.8765  -1.8320  -1.7078
    -1.4796  -1.4665  -1.3890  -1.3329  -1.3243  -1.1834  -1.0694   0.0020
     0.7427   0.9061   0.9726   0.9954   1.0959   1.4494   1.7160   1.7950
     1.8808   1.9612   2.0734   2.2848   2.5932   2.6054   2.7055   2.7327
     2.7580   2.8258   2.9435   3.2603   3.5159   4.0109   4.2596   4.3452
     4.7749   4.7933   4.8868   5.0276   5.0314   5.0818   5.2256   5.2767
     5.2983   5.4513   5.4695   5.5456   5.7100   5.8277   5.8810   6.4898
     6.6224   6.7362   6.9314   6.9468   6.9810   7.0537   7.0921   7.1250
     7.1881   7.2044   7.2535   7.2861   7.3024   7.3518   7.3773   7.3855
     7.4167   7.4763   7.7647   7.7733   7.8464   7.9465   7.9739   7.9828
     8.1542   8.1878   8.2937   8.3179   8.4119   8.4261   8.4288   8.5602
     8.7246   8.7691   8.9901   9.0231   9.1948   9.5581   9.6322   9.6882
     9.9645  10.4080  10.5472  10.5550  10.6155  10.9668  10.9696  11.2206
    11.2486  11.3335  11.5015  11.7744  11.8152  14.1090  15.6471  15.9800
    18.0903  18.2757  18.3462  18.5471  18.6739  18.7572  19.1680  19.3862
    19.4394  19.5024  19.5344  19.5692  19.6383  19.6473  19.6746  19.7393
    19.7592  19.8092  19.9316  19.9321  20.0061  20.0076  20.0706  20.1819

     occupation numbers 
     1.0000   1.0000   1.0000   1.0000   1.0000   1.0000   1.0000   1.0000
     1.0000   1.0000   1.0000   1.0000   1.0000   1.0000   1.0000   1.0000
     1.0000   1.0000   1.0000   1.0000   1.0000   1.0000   1.0000   1.0000
     1.0000   1.0000   1.0000   1.0000   1.0000   1.0000   1.0000   1.0000
     1.0000   1.0000   1.0000   1.0000   1.0000   1.0000   1.0000   1.0000
     1.0000   1.0000   1.0000   1.0000   1.0000   1.0000   1.0000   1.0000
     1.0000   1.0000   1.0000   1.0000   1.0000   1.0000   1.0000   1.0000
     1.0000   1.0000   1.0000   1.0000   1.0000   1.0000   1.0000   1.0000
     1.0000   1.0000   1.0000   1.0000   1.0000   1.0000   1.0000   1.0000
     1.0000   1.0000   1.0000   1.0000   1.0000   1.0000   1.0000   1.0000
     1.0000   1.0000   1.0000   1.0000   1.0000   1.0000   1.0000   1.0000
     1.0000   1.0000   1.0000   1.0000   1.0000   1.0000   1.0000   1.0000
     1.0000   1.0000   1.0000   1.0000   1.0000   1.0000   1.0000   1.0000
     1.0000   1.0000   1.0000   1.0000   1.0000   1.0000   1.0000   1.0000
     1.0000   1.0000   1.0000   1.0000   1.0000   1.0000   1.0000   1.0000
     1.0000   1.0000   1.0000   1.0000   1.0000   0.0000   1.0000   0.0000
     0.0000   0.0000   0.0000   0.0000   0.0000   0.0000   0.0000   0.0000
     0.0000   0.0000   0.0000   0.0000   0.0000   0.0000   0.0000   0.0000
     0.0000   0.0000   0.0000   0.0000   0.0000   0.0000   0.0000   0.0000

     highest occupied, lowest unoccupied level (ev):    14.9406   13.7389

!    total energy              =    -724.68770433 Ry
     Harris-Foulkes estimate   =    -724.68770343 Ry
     estimated scf accuracy    <       0.00000097 Ry

     The total energy is the sum of the following terms:

     one-electron contribution =     232.95567619 Ry
     hartree contribution      =      69.17518810 Ry
     xc contribution           =    -226.40545743 Ry
     ewald contribution        =    -800.41311120 Ry

     total magnetization       =     2.00 Bohr mag/cell
     absolute magnetization    =     2.20 Bohr mag/cell

     convergence has been achieved in  10 iterations

     Writing output data file di.save
 
     init_run     :      1.33s CPU      1.75s WALL (       1 calls)
     electrons    :     28.64s CPU     29.11s WALL (       1 calls)

     Called by init_run:
     wfcinit      :      0.75s CPU      0.84s WALL (       1 calls)
     wfcinit:atom :      0.01s CPU      0.01s WALL (       2 calls)
     wfcinit:wfcr :      0.70s CPU      0.78s WALL (       2 calls)
     potinit      :      0.15s CPU      0.18s WALL (       1 calls)

     Called by electrons:
     c_bands      :     26.89s CPU     27.31s WALL (      10 calls)
     sum_band     :      1.18s CPU      1.20s WALL (      10 calls)
     v_of_rho     :      0.40s CPU      0.41s WALL (      11 calls)
     v_h          :      0.01s CPU      0.01s WALL (      11 calls)
     v_xc         :      0.39s CPU      0.40s WALL (      11 calls)
     mix_rho      :      0.07s CPU      0.08s WALL (      10 calls)

     Called by c_bands:
     init_us_2    :      0.19s CPU      0.19s WALL (      42 calls)
     cegterg      :     24.40s CPU     24.79s WALL (      20 calls)

     Called by sum_band:

     Called by *egterg:
     h_psi        :      9.29s CPU      9.43s WALL (     145 calls)
     g_psi        :      0.05s CPU      0.05s WALL (     123 calls)
     cdiaghg      :     10.91s CPU     10.97s WALL (     143 calls)
     cegterg:over :      1.86s CPU      1.87s WALL (     123 calls)
     cegterg:upda :      1.41s CPU      1.42s WALL (     123 calls)
     cegterg:last :      0.51s CPU      0.52s WALL (      20 calls)

     Called by h_psi:
     h_psi:pot    :      9.18s CPU      9.32s WALL (     145 calls)
     h_psi:calbec :      1.99s CPU      2.02s WALL (     145 calls)
     vloc_psi     :      5.11s CPU      5.20s WALL (     145 calls)
     add_vuspsi   :      2.08s CPU      2.10s WALL (     145 calls)

     General routines
     calbec       :      1.99s CPU      2.02s WALL (     145 calls)
     fft          :      0.12s CPU      0.32s WALL (     228 calls)
     fftw         :      5.43s CPU      5.45s WALL (   20462 calls)
 
     Parallel routines
     fft_scatter  :      1.63s CPU      1.60s WALL (   20690 calls)
 
     PWSCF        :    32.80s CPU        36.24s WALL

 
   This run was terminated on:  10:30:35  12May2020            

=------------------------------------------------------------------------------=
   JOB DONE.
=------------------------------------------------------------------------------=
