
     Program PWSCF v.6.1 (svn rev. 13369) starts on 12May2020 at 10:32: 6 

     This program is part of the open-source Quantum ESPRESSO suite
     for quantum simulation of materials; please cite
         "P. Giannozzi et al., J. Phys.:Condens. Matter 21 395502 (2009);
          URL http://www.quantum-espresso.org", 
     in publications or presentations arising from this work. More details at
     http://www.quantum-espresso.org/quote

     Parallel version (MPI), running on    96 processors
     K-points division:     npool     =       6
     R & G space division:  proc/nbgrp/npool/nimage =      16
     Reading input from scf.in
Warning: card &IONS ignored
Warning: card / ignored

     Current dimensions of program PWSCF are:
     Max number of different atomic species (ntypx) = 10
     Max number of k-points (npk) =  40000
     Max angular momentum in pseudopotentials (lmaxx) =  3

     Subspace diagonalization in iterative solution of the eigenvalue problem:
     a serial algorithm will be used

 
     Parallelization info
     --------------------
     sticks:   dense  smooth     PW     G-vecs:    dense   smooth      PW
     Min         252     252     67                12125    12125    1669
     Max         254     254     68                12129    12129    1672
     Sum        4049    4049   1085               194039   194039   26745
 


     bravais-lattice index     =            1
     lattice parameter (alat)  =      13.4862  a.u.
     unit-cell volume          =    2452.8358 (a.u.)^3
     number of atoms/cell      =           63
     number of atomic types    =            2
     number of electrons       =       254.00
     number of Kohn-Sham states=          152
     kinetic-energy cutoff     =      70.0000  Ry
     charge density cutoff     =     280.0000  Ry
     convergence threshold     =      1.0E-06
     mixing beta               =       0.5000
     number of iterations used =            8  plain     mixing
     Exchange-correlation      = PBE ( 1  4  3  4 0 0)

     celldm(1)=  13.486197  celldm(2)=   0.000000  celldm(3)=   0.000000
     celldm(4)=   0.000000  celldm(5)=   0.000000  celldm(6)=   0.000000

     crystal axes: (cart. coord. in units of alat)
               a(1) = (   1.000000   0.000000   0.000000 )  
               a(2) = (   0.000000   1.000000   0.000000 )  
               a(3) = (   0.000000   0.000000   1.000000 )  

     reciprocal axes: (cart. coord. in units 2 pi/alat)
               b(1) = (  1.000000  0.000000  0.000000 )  
               b(2) = (  0.000000  1.000000  0.000000 )  
               b(3) = (  0.000000  0.000000  1.000000 )  


     PseudoPot. # 1 for C  read from file:
     /home/tjsmart/Pseudo/C_ONCV_PBE-1.0.upf
     MD5 check sum: 72b63e32b2fd29504de26a4901699f60
     Pseudo is Norm-conserving, Zval =  4.0
     Generated using ONCVPSP code by D. R. Hamann
     Using radial grid of 1248 points,  4 beta functions with: 
                l(1) =   0
                l(2) =   0
                l(3) =   1
                l(4) =   1

     PseudoPot. # 2 for N  read from file:
     /home/tjsmart/Pseudo/N_ONCV_PBE-1.0.upf
     MD5 check sum: 09890da6b2972017450f7114a6086fad
     Pseudo is Norm-conserving, Zval =  5.0
     Generated using ONCVPSP code by D. R. Hamann
     Using radial grid of 1058 points,  4 beta functions with: 
                l(1) =   0
                l(2) =   0
                l(3) =   1
                l(4) =   1

     atomic species   valence    mass     pseudopotential
        C              4.00    12.01110     C ( 1.00)
        N              5.00    14.00670     N ( 1.00)

     Starting magnetic structure 
     atomic species   magnetization
        C            0.500
        N            0.500

      6 Sym. Ops. (no inversion) found


                                    s                        frac. trans.

      isym =  1     identity                                     

 cryst.   s( 1) = (     1          0          0      )
                  (     0          1          0      )
                  (     0          0          1      )

 cart.    s( 1) = (  1.0000000  0.0000000  0.0000000 )
                  (  0.0000000  1.0000000  0.0000000 )
                  (  0.0000000  0.0000000  1.0000000 )


      isym =  2     120 deg rotation - cart. axis [-1,-1,-1]     

 cryst.   s( 2) = (     0          0          1      )
                  (     1          0          0      )
                  (     0          1          0      )

 cart.    s( 2) = (  0.0000000  1.0000000  0.0000000 )
                  (  0.0000000  0.0000000  1.0000000 )
                  (  1.0000000  0.0000000  0.0000000 )


      isym =  3     120 deg rotation - cart. axis [1,1,1]        

 cryst.   s( 3) = (     0          1          0      )
                  (     0          0          1      )
                  (     1          0          0      )

 cart.    s( 3) = (  0.0000000  0.0000000  1.0000000 )
                  (  1.0000000  0.0000000  0.0000000 )
                  (  0.0000000  1.0000000  0.0000000 )


      isym =  4     inv. 180 deg rotation - cart. axis [1,-1,0]  

 cryst.   s( 4) = (     0          1          0      )
                  (     1          0          0      )
                  (     0          0          1      )

 cart.    s( 4) = (  0.0000000  1.0000000  0.0000000 )
                  (  1.0000000  0.0000000  0.0000000 )
                  (  0.0000000  0.0000000  1.0000000 )


      isym =  5     inv. 180 deg rotation - cart. axis [-1,0,1]  

 cryst.   s( 5) = (     0          0          1      )
                  (     0          1          0      )
                  (     1          0          0      )

 cart.    s( 5) = (  0.0000000  0.0000000  1.0000000 )
                  (  0.0000000  1.0000000  0.0000000 )
                  (  1.0000000  0.0000000  0.0000000 )


      isym =  6     inv. 180 deg rotation - cart. axis [0,1,-1]  

 cryst.   s( 6) = (     1          0          0      )
                  (     0          0          1      )
                  (     0          1          0      )

 cart.    s( 6) = (  1.0000000  0.0000000  0.0000000 )
                  (  0.0000000  0.0000000  1.0000000 )
                  (  0.0000000  1.0000000  0.0000000 )


     point group C_3v (3m)  
     there are  3 classes
     the character table:

       E     2C3   3s_v 
A_1    1.00  1.00  1.00
A_2    1.00  1.00 -1.00
E      2.00 -1.00  0.00

     the symmetry operations in each class and the name of the first element:

     E        1
          identity                                               
     2C3      2    3
          120 deg rotation - cart. axis [-1,-1,-1]               
     3s_v     4    5    6
          inv. 180 deg rotation - cart. axis [1,-1,0]            

   Cartesian axes

     site n.     atom                  positions (alat units)
         1           C   tau(   1) = (   0.3757826   0.3757826   0.8735660  )
         2           C   tau(   2) = (   0.5002797   0.0004535   0.0004535  )
         3           C   tau(   3) = (   0.4999752  -0.0004630   0.4999752  )
         4           C   tau(   4) = (   0.0004535   0.5002797   0.0004535  )
         5           C   tau(   5) = (  -0.0004630   0.4999752   0.4999752  )
         6           C   tau(   6) = (  -0.0001230  -0.0001230  -0.0001230  )
         7           C   tau(   7) = (   0.0004535   0.0004535   0.5002797  )
         8           C   tau(   8) = (   0.2504734   0.2504734  -0.0008756  )
         9           C   tau(   9) = (   0.2514561   0.2514561   0.4964832  )
        10           C   tau(  10) = (   0.2501313   0.7491431   0.0008329  )
        11           C   tau(  11) = (   0.2509929   0.7486868   0.5021470  )
        12           C   tau(  12) = (   0.7491431   0.2501313   0.0008329  )
        13           C   tau(  13) = (   0.7486868   0.2509929   0.5021470  )
        14           C   tau(  14) = (   0.7494982   0.7494982  -0.0008973  )
        15           C   tau(  15) = (   0.4999752   0.4999752  -0.0004630  )
        16           C   tau(  16) = (   0.7485130   0.7485130   0.4982808  )
        17           C   tau(  17) = (   0.5021470   0.2509929   0.7486868  )
        18           C   tau(  18) = (   0.5021470   0.7486868   0.2509929  )
        19           C   tau(  19) = (   0.4982808   0.7485130   0.7485130  )
        20           C   tau(  20) = (  -0.0008756   0.2504734   0.2504734  )
        21           C   tau(  21) = (   0.0008329   0.2501313   0.7491431  )
        22           C   tau(  22) = (   0.0008329   0.7491431   0.2501313  )
        23           C   tau(  23) = (  -0.0008973   0.7494982   0.7494982  )
        24           C   tau(  24) = (   0.2514561   0.4964832   0.2514561  )
        25           C   tau(  25) = (   0.2509929   0.5021470   0.7486868  )
        26           C   tau(  26) = (   0.2504734  -0.0008756   0.2504734  )
        27           C   tau(  27) = (   0.2501313   0.0008329   0.7491431  )
        28           C   tau(  28) = (   0.7486868   0.5021470   0.2509929  )
        29           C   tau(  29) = (   0.7485130   0.4982808   0.7485130  )
        30           C   tau(  30) = (   0.4964832   0.2514561   0.2514561  )
        31           C   tau(  31) = (   0.7491431   0.0008329   0.2501313  )
        32           C   tau(  32) = (   0.6242020   0.8735916   0.6242020  )
        33           C   tau(  33) = (   0.6363542   0.3620336   0.6363542  )
        34           C   tau(  34) = (   0.3756703   0.8762231   0.8762231  )
        35           C   tau(  35) = (   0.3757826   0.8735660   0.3757826  )
        36           C   tau(  36) = (   0.8762231   0.3756703   0.8762231  )
        37           C   tau(  37) = (   0.8735660   0.3757826   0.3757826  )
        38           C   tau(  38) = (   0.8744694   0.8744694   0.8744694  )
        39           C   tau(  39) = (   0.8762231   0.8762231   0.3756703  )
        40           C   tau(  40) = (   0.1253691   0.1253691   0.8744404  )
        41           C   tau(  41) = (   0.1246222   0.1246222   0.3748737  )
        42           C   tau(  42) = (   0.1235361   0.6243070   0.8761730  )
        43           C   tau(  43) = (   0.1265384   0.6235130   0.3763914  )
        44           C   tau(  44) = (   0.6243070   0.1235361   0.8761730  )
        45           C   tau(  45) = (   0.6235130   0.1265384   0.3763914  )
        46           C   tau(  46) = (   0.6243070   0.8761730   0.1235361  )
        47           C   tau(  47) = (   0.6242020   0.6242020   0.8735916  )
        48           C   tau(  48) = (   0.3748737   0.1246222   0.1246222  )
        49           C   tau(  49) = (   0.3763914   0.1265384   0.6235130  )
        50           C   tau(  50) = (   0.3763914   0.6235130   0.1265384  )
        51           C   tau(  51) = (   0.3620336   0.6363542   0.6363542  )
        52           C   tau(  52) = (   0.8744404   0.1253691   0.1253691  )
        53           C   tau(  53) = (   0.8761730   0.1235361   0.6243070  )
        54           C   tau(  54) = (   0.8761730   0.6243070   0.1235361  )
        55           C   tau(  55) = (   0.8735916   0.6242020   0.6242020  )
        56           C   tau(  56) = (   0.1246222   0.3748737   0.1246222  )
        57           C   tau(  57) = (   0.1265384   0.3763914   0.6235130  )
        58           C   tau(  58) = (   0.1253691   0.8744404   0.1253691  )
        59           C   tau(  59) = (   0.1235361   0.8761730   0.6243070  )
        60           C   tau(  60) = (   0.6235130   0.3763914   0.1265384  )
        61           C   tau(  61) = (   0.6363542   0.6363542   0.3620336  )
        62           C   tau(  62) = (   0.7494982  -0.0008973   0.7494982  )
        63           N   tau(  63) = (   0.3680390   0.3680390   0.3680390  )

   Crystallographic axes

     site n.     atom                  positions (cryst. coord.)
         1           C   tau(   1) = (  0.3757826  0.3757826  0.8735660  )
         2           C   tau(   2) = (  0.5002797  0.0004535  0.0004535  )
         3           C   tau(   3) = (  0.4999752 -0.0004630  0.4999752  )
         4           C   tau(   4) = (  0.0004535  0.5002797  0.0004535  )
         5           C   tau(   5) = ( -0.0004630  0.4999752  0.4999752  )
         6           C   tau(   6) = ( -0.0001230 -0.0001230 -0.0001230  )
         7           C   tau(   7) = (  0.0004535  0.0004535  0.5002797  )
         8           C   tau(   8) = (  0.2504734  0.2504734 -0.0008756  )
         9           C   tau(   9) = (  0.2514561  0.2514561  0.4964832  )
        10           C   tau(  10) = (  0.2501313  0.7491431  0.0008329  )
        11           C   tau(  11) = (  0.2509929  0.7486868  0.5021470  )
        12           C   tau(  12) = (  0.7491431  0.2501313  0.0008329  )
        13           C   tau(  13) = (  0.7486868  0.2509929  0.5021470  )
        14           C   tau(  14) = (  0.7494982  0.7494982 -0.0008973  )
        15           C   tau(  15) = (  0.4999752  0.4999752 -0.0004630  )
        16           C   tau(  16) = (  0.7485130  0.7485130  0.4982808  )
        17           C   tau(  17) = (  0.5021470  0.2509929  0.7486868  )
        18           C   tau(  18) = (  0.5021470  0.7486868  0.2509929  )
        19           C   tau(  19) = (  0.4982808  0.7485130  0.7485130  )
        20           C   tau(  20) = ( -0.0008756  0.2504734  0.2504734  )
        21           C   tau(  21) = (  0.0008329  0.2501313  0.7491431  )
        22           C   tau(  22) = (  0.0008329  0.7491431  0.2501313  )
        23           C   tau(  23) = ( -0.0008973  0.7494982  0.7494982  )
        24           C   tau(  24) = (  0.2514561  0.4964832  0.2514561  )
        25           C   tau(  25) = (  0.2509929  0.5021470  0.7486868  )
        26           C   tau(  26) = (  0.2504734 -0.0008756  0.2504734  )
        27           C   tau(  27) = (  0.2501313  0.0008329  0.7491431  )
        28           C   tau(  28) = (  0.7486868  0.5021470  0.2509929  )
        29           C   tau(  29) = (  0.7485130  0.4982808  0.7485130  )
        30           C   tau(  30) = (  0.4964832  0.2514561  0.2514561  )
        31           C   tau(  31) = (  0.7491431  0.0008329  0.2501313  )
        32           C   tau(  32) = (  0.6242020  0.8735916  0.6242020  )
        33           C   tau(  33) = (  0.6363542  0.3620336  0.6363542  )
        34           C   tau(  34) = (  0.3756703  0.8762231  0.8762231  )
        35           C   tau(  35) = (  0.3757826  0.8735660  0.3757826  )
        36           C   tau(  36) = (  0.8762231  0.3756703  0.8762231  )
        37           C   tau(  37) = (  0.8735660  0.3757826  0.3757826  )
        38           C   tau(  38) = (  0.8744694  0.8744694  0.8744694  )
        39           C   tau(  39) = (  0.8762231  0.8762231  0.3756703  )
        40           C   tau(  40) = (  0.1253691  0.1253691  0.8744404  )
        41           C   tau(  41) = (  0.1246222  0.1246222  0.3748737  )
        42           C   tau(  42) = (  0.1235361  0.6243070  0.8761730  )
        43           C   tau(  43) = (  0.1265384  0.6235130  0.3763914  )
        44           C   tau(  44) = (  0.6243070  0.1235361  0.8761730  )
        45           C   tau(  45) = (  0.6235130  0.1265384  0.3763914  )
        46           C   tau(  46) = (  0.6243070  0.8761730  0.1235361  )
        47           C   tau(  47) = (  0.6242020  0.6242020  0.8735916  )
        48           C   tau(  48) = (  0.3748737  0.1246222  0.1246222  )
        49           C   tau(  49) = (  0.3763914  0.1265384  0.6235130  )
        50           C   tau(  50) = (  0.3763914  0.6235130  0.1265384  )
        51           C   tau(  51) = (  0.3620336  0.6363542  0.6363542  )
        52           C   tau(  52) = (  0.8744404  0.1253691  0.1253691  )
        53           C   tau(  53) = (  0.8761730  0.1235361  0.6243070  )
        54           C   tau(  54) = (  0.8761730  0.6243070  0.1235361  )
        55           C   tau(  55) = (  0.8735916  0.6242020  0.6242020  )
        56           C   tau(  56) = (  0.1246222  0.3748737  0.1246222  )
        57           C   tau(  57) = (  0.1265384  0.3763914  0.6235130  )
        58           C   tau(  58) = (  0.1253691  0.8744404  0.1253691  )
        59           C   tau(  59) = (  0.1235361  0.8761730  0.6243070  )
        60           C   tau(  60) = (  0.6235130  0.3763914  0.1265384  )
        61           C   tau(  61) = (  0.6363542  0.6363542  0.3620336  )
        62           C   tau(  62) = (  0.7494982 -0.0008973  0.7494982  )
        63           N   tau(  63) = (  0.3680390  0.3680390  0.3680390  )

     number of k points=     6
                       cart. coord. in units 2pi/alat
        k(    1) = (   0.0000000   0.0000000   0.0000000), wk =   0.0370370
        k(    2) = (   0.0000000   0.0000000   0.3333333), wk =   0.2222222
        k(    3) = (   0.0000000   0.3333333   0.3333333), wk =   0.2222222
        k(    4) = (   0.3333333   0.3333333   0.3333333), wk =   0.0740741
        k(    5) = (  -0.3333333   0.0000000   0.3333333), wk =   0.2222222
        k(    6) = (   0.3333333  -0.3333333   0.3333333), wk =   0.2222222

                       cryst. coord.
        k(    1) = (   0.0000000   0.0000000   0.0000000), wk =   0.0370370
        k(    2) = (   0.0000000   0.0000000   0.3333333), wk =   0.2222222
        k(    3) = (   0.0000000   0.3333333   0.3333333), wk =   0.2222222
        k(    4) = (   0.3333333   0.3333333   0.3333333), wk =   0.0740741
        k(    5) = (  -0.3333333   0.0000000   0.3333333), wk =   0.2222222
        k(    6) = (   0.3333333  -0.3333333   0.3333333), wk =   0.2222222

     Dense  grid:   194039 G-vectors     FFT dimensions: (  72,  72,  72)

     Occupations read from input 

      Spin-up

        1.0000   1.0000   1.0000   1.0000   1.0000   1.0000   1.0000   1.0000
        1.0000   1.0000   1.0000   1.0000   1.0000   1.0000   1.0000   1.0000
        1.0000   1.0000   1.0000   1.0000   1.0000   1.0000   1.0000   1.0000
        1.0000   1.0000   1.0000   1.0000   1.0000   1.0000   1.0000   1.0000
        1.0000   1.0000   1.0000   1.0000   1.0000   1.0000   1.0000   1.0000
        1.0000   1.0000   1.0000   1.0000   1.0000   1.0000   1.0000   1.0000
        1.0000   1.0000   1.0000   1.0000   1.0000   1.0000   1.0000   1.0000
        1.0000   1.0000   1.0000   1.0000   1.0000   1.0000   1.0000   1.0000
        1.0000   1.0000   1.0000   1.0000   1.0000   1.0000   1.0000   1.0000
        1.0000   1.0000   1.0000   1.0000   1.0000   1.0000   1.0000   1.0000
        1.0000   1.0000   1.0000   1.0000   1.0000   1.0000   1.0000   1.0000
        1.0000   1.0000   1.0000   1.0000   1.0000   1.0000   1.0000   1.0000
        1.0000   1.0000   1.0000   1.0000   1.0000   1.0000   1.0000   1.0000
        1.0000   1.0000   1.0000   1.0000   1.0000   1.0000   1.0000   1.0000
        1.0000   1.0000   1.0000   1.0000   1.0000   1.0000   1.0000   1.0000
        1.0000   1.0000   1.0000   1.0000   1.0000   1.0000   1.0000   1.0000
        0.0000   0.0000   0.0000   0.0000   0.0000   0.0000   0.0000   0.0000
        0.0000   0.0000   0.0000   0.0000   0.0000   0.0000   0.0000   0.0000
        0.0000   0.0000   0.0000   0.0000   0.0000   0.0000   0.0000   0.0000

      Spin-down

        1.0000   1.0000   1.0000   1.0000   1.0000   1.0000   1.0000   1.0000
        1.0000   1.0000   1.0000   1.0000   1.0000   1.0000   1.0000   1.0000
        1.0000   1.0000   1.0000   1.0000   1.0000   1.0000   1.0000   1.0000
        1.0000   1.0000   1.0000   1.0000   1.0000   1.0000   1.0000   1.0000
        1.0000   1.0000   1.0000   1.0000   1.0000   1.0000   1.0000   1.0000
        1.0000   1.0000   1.0000   1.0000   1.0000   1.0000   1.0000   1.0000
        1.0000   1.0000   1.0000   1.0000   1.0000   1.0000   1.0000   1.0000
        1.0000   1.0000   1.0000   1.0000   1.0000   1.0000   1.0000   1.0000
        1.0000   1.0000   1.0000   1.0000   1.0000   1.0000   1.0000   1.0000
        1.0000   1.0000   1.0000   1.0000   1.0000   1.0000   1.0000   1.0000
        1.0000   1.0000   1.0000   1.0000   1.0000   1.0000   1.0000   1.0000
        1.0000   1.0000   1.0000   1.0000   1.0000   1.0000   1.0000   1.0000
        1.0000   1.0000   1.0000   1.0000   1.0000   1.0000   1.0000   1.0000
        1.0000   1.0000   1.0000   1.0000   1.0000   1.0000   1.0000   1.0000
        1.0000   1.0000   1.0000   1.0000   1.0000   1.0000   1.0000   1.0000
        1.0000   1.0000   1.0000   1.0000   1.0000   0.0000   1.0000   0.0000
        0.0000   0.0000   0.0000   0.0000   0.0000   0.0000   0.0000   0.0000
        0.0000   0.0000   0.0000   0.0000   0.0000   0.0000   0.0000   0.0000
        0.0000   0.0000   0.0000   0.0000   0.0000   0.0000   0.0000   0.0000

     Estimated max dynamical RAM per process >      60.23MB

     Estimated total allocated dynamical RAM >    5782.56MB
     Generating pointlists ...
     new r_m :   0.0855 (alat units)  1.1530 (a.u.) for type    1
     new r_m :   0.0862 (alat units)  1.1627 (a.u.) for type    2

     Initial potential from superposition of free atoms

     starting charge  252.99722, renormalised to  254.00000
     Starting wfc are  252 randomized atomic wfcs

     total cpu time spent up to now is        4.0 secs

     per-process dynamical memory:    59.5 Mb

     Self-consistent Calculation

     iteration #  1     ecut=    70.00 Ry     beta=0.50
     Davidson diagonalization with overlap
     ethr =  1.00E-02,  avg # of iterations =  3.0

     total cpu time spent up to now is        6.3 secs

     total energy              =    -722.45965559 Ry
     Harris-Foulkes estimate   =    -717.56118677 Ry
     estimated scf accuracy    <       6.66707249 Ry

     total magnetization       =     2.00 Bohr mag/cell
     absolute magnetization    =     3.66 Bohr mag/cell

     iteration #  2     ecut=    70.00 Ry     beta=0.50
     Davidson diagonalization with overlap
     ethr =  2.62E-03,  avg # of iterations =  2.0

     total cpu time spent up to now is        7.7 secs

     total energy              =    -724.30061721 Ry
     Harris-Foulkes estimate   =    -722.83214009 Ry
     estimated scf accuracy    <       1.43390940 Ry

     total magnetization       =     2.00 Bohr mag/cell
     absolute magnetization    =     2.50 Bohr mag/cell

     iteration #  3     ecut=    70.00 Ry     beta=0.50
     Davidson diagonalization with overlap
     ethr =  5.65E-04,  avg # of iterations =  7.3

     total cpu time spent up to now is       11.2 secs

     total energy              =    -724.55317801 Ry
     Harris-Foulkes estimate   =    -724.57995773 Ry
     estimated scf accuracy    <       0.61076722 Ry

     total magnetization       =     2.00 Bohr mag/cell
     absolute magnetization    =     2.14 Bohr mag/cell

     iteration #  4     ecut=    70.00 Ry     beta=0.50
     Davidson diagonalization with overlap
     ethr =  2.40E-04,  avg # of iterations =  6.3

     total cpu time spent up to now is       14.1 secs

     total energy              =    -724.68460274 Ry
     Harris-Foulkes estimate   =    -724.67349062 Ry
     estimated scf accuracy    <       0.02795847 Ry

     total magnetization       =     2.00 Bohr mag/cell
     absolute magnetization    =     2.14 Bohr mag/cell

     iteration #  5     ecut=    70.00 Ry     beta=0.50
     Davidson diagonalization with overlap
     ethr =  1.10E-05,  avg # of iterations =  9.8

     total cpu time spent up to now is       19.3 secs

     total energy              =    -724.69249315 Ry
     Harris-Foulkes estimate   =    -724.69193141 Ry
     estimated scf accuracy    <       0.00526923 Ry

     total magnetization       =     2.00 Bohr mag/cell
     absolute magnetization    =     2.16 Bohr mag/cell

     iteration #  6     ecut=    70.00 Ry     beta=0.50
     Davidson diagonalization with overlap
     ethr =  2.07E-06,  avg # of iterations =  8.4

     total cpu time spent up to now is       23.7 secs

     total energy              =    -724.69355890 Ry
     Harris-Foulkes estimate   =    -724.69361505 Ry
     estimated scf accuracy    <       0.00055452 Ry

     total magnetization       =     2.00 Bohr mag/cell
     absolute magnetization    =     2.17 Bohr mag/cell

     iteration #  7     ecut=    70.00 Ry     beta=0.50
     Davidson diagonalization with overlap
     ethr =  2.18E-07,  avg # of iterations =  3.5

     total cpu time spent up to now is       25.7 secs

     total energy              =    -724.69374276 Ry
     Harris-Foulkes estimate   =    -724.69372288 Ry
     estimated scf accuracy    <       0.00008944 Ry

     total magnetization       =     2.00 Bohr mag/cell
     absolute magnetization    =     2.18 Bohr mag/cell

     iteration #  8     ecut=    70.00 Ry     beta=0.50
     Davidson diagonalization with overlap
     ethr =  3.52E-08,  avg # of iterations =  3.0

     total cpu time spent up to now is       27.7 secs

     total energy              =    -724.69378569 Ry
     Harris-Foulkes estimate   =    -724.69376914 Ry
     estimated scf accuracy    <       0.00001641 Ry

     total magnetization       =     2.00 Bohr mag/cell
     absolute magnetization    =     2.19 Bohr mag/cell

     iteration #  9     ecut=    70.00 Ry     beta=0.50
     Davidson diagonalization with overlap
     ethr =  6.46E-09,  avg # of iterations =  3.8

     total cpu time spent up to now is       29.9 secs

     total energy              =    -724.69379841 Ry
     Harris-Foulkes estimate   =    -724.69378965 Ry
     estimated scf accuracy    <       0.00000477 Ry

     total magnetization       =     2.00 Bohr mag/cell
     absolute magnetization    =     2.20 Bohr mag/cell

     iteration # 10     ecut=    70.00 Ry     beta=0.50
     Davidson diagonalization with overlap
     ethr =  1.88E-09,  avg # of iterations =  4.5
 
     Magnetic moment per site:
     atom:    1    charge:    1.8247    magn:    0.0072    constr:    0.0000
     atom:    2    charge:    1.8455    magn:    0.0085    constr:    0.0000
     atom:    3    charge:    1.8332    magn:   -0.0014    constr:    0.0000
     atom:    4    charge:    1.8455    magn:    0.0085    constr:    0.0000
     atom:    5    charge:    1.8332    magn:   -0.0014    constr:    0.0000
     atom:    6    charge:    1.8226    magn:   -0.0000    constr:    0.0000
     atom:    7    charge:    1.8455    magn:    0.0085    constr:    0.0000
     atom:    8    charge:    1.8263    magn:   -0.0007    constr:    0.0000
     atom:    9    charge:    1.8007    magn:    0.0001    constr:    0.0000
     atom:   10    charge:    1.8212    magn:   -0.0014    constr:    0.0000
     atom:   11    charge:    1.8371    magn:   -0.0031    constr:    0.0000
     atom:   12    charge:    1.8212    magn:   -0.0014    constr:    0.0000
     atom:   13    charge:    1.8371    magn:   -0.0031    constr:    0.0000
     atom:   14    charge:    1.8250    magn:   -0.0016    constr:    0.0000
     atom:   15    charge:    1.8332    magn:   -0.0014    constr:    0.0000
     atom:   16    charge:    1.8316    magn:   -0.0003    constr:    0.0000
     atom:   17    charge:    1.8371    magn:   -0.0031    constr:    0.0000
     atom:   18    charge:    1.8371    magn:   -0.0031    constr:    0.0000
     atom:   19    charge:    1.8316    magn:   -0.0003    constr:    0.0000
     atom:   20    charge:    1.8263    magn:   -0.0007    constr:    0.0000
     atom:   21    charge:    1.8212    magn:   -0.0014    constr:    0.0000
     atom:   22    charge:    1.8212    magn:   -0.0014    constr:    0.0000
     atom:   23    charge:    1.8250    magn:   -0.0016    constr:    0.0000
     atom:   24    charge:    1.8007    magn:    0.0001    constr:    0.0000
     atom:   25    charge:    1.8371    magn:   -0.0031    constr:    0.0000
     atom:   26    charge:    1.8263    magn:   -0.0007    constr:    0.0000
     atom:   27    charge:    1.8212    magn:   -0.0014    constr:    0.0000
     atom:   28    charge:    1.8371    magn:   -0.0031    constr:    0.0000
     atom:   29    charge:    1.8316    magn:   -0.0003    constr:    0.0000
     atom:   30    charge:    1.8007    magn:    0.0001    constr:    0.0000
     atom:   31    charge:    1.8212    magn:   -0.0014    constr:    0.0000
     atom:   32    charge:    1.8262    magn:    0.0061    constr:    0.0000
     atom:   33    charge:    1.8603    magn:    0.2030    constr:    0.0000
     atom:   34    charge:    1.8230    magn:    0.0165    constr:    0.0000
     atom:   35    charge:    1.8247    magn:    0.0072    constr:    0.0000
     atom:   36    charge:    1.8230    magn:    0.0165    constr:    0.0000
     atom:   37    charge:    1.8247    magn:    0.0072    constr:    0.0000
     atom:   38    charge:    1.8297    magn:    0.0044    constr:    0.0000
     atom:   39    charge:    1.8230    magn:    0.0165    constr:    0.0000
     atom:   40    charge:    1.8288    magn:    0.0036    constr:    0.0000
     atom:   41    charge:    1.8323    magn:    0.0086    constr:    0.0000
     atom:   42    charge:    1.8300    magn:    0.0177    constr:    0.0000
     atom:   43    charge:    1.8238    magn:    0.0047    constr:    0.0000
     atom:   44    charge:    1.8300    magn:    0.0177    constr:    0.0000
     atom:   45    charge:    1.8238    magn:    0.0047    constr:    0.0000
     atom:   46    charge:    1.8300    magn:    0.0177    constr:    0.0000
     atom:   47    charge:    1.8262    magn:    0.0061    constr:    0.0000
     atom:   48    charge:    1.8323    magn:    0.0086    constr:    0.0000
     atom:   49    charge:    1.8238    magn:    0.0047    constr:    0.0000
     atom:   50    charge:    1.8238    magn:    0.0047    constr:    0.0000
     atom:   51    charge:    1.8603    magn:    0.2030    constr:    0.0000
     atom:   52    charge:    1.8288    magn:    0.0036    constr:    0.0000
     atom:   53    charge:    1.8300    magn:    0.0177    constr:    0.0000
     atom:   54    charge:    1.8300    magn:    0.0177    constr:    0.0000
     atom:   55    charge:    1.8262    magn:    0.0061    constr:    0.0000
     atom:   56    charge:    1.8323    magn:    0.0086    constr:    0.0000
     atom:   57    charge:    1.8238    magn:    0.0047    constr:    0.0000
     atom:   58    charge:    1.8288    magn:    0.0036    constr:    0.0000
     atom:   59    charge:    1.8300    magn:    0.0177    constr:    0.0000
     atom:   60    charge:    1.8238    magn:    0.0047    constr:    0.0000
     atom:   61    charge:    1.8603    magn:    0.2030    constr:    0.0000
     atom:   62    charge:    1.8250    magn:   -0.0016    constr:    0.0000
     atom:   63    charge:    2.9204    magn:    0.1228    constr:    0.0000

     total cpu time spent up to now is       32.7 secs

     End of self-consistent calculation

 ------ SPIN UP ------------


          k = 0.0000 0.0000 0.0000 ( 24207 PWs)   bands (ev):

    -8.6151  -7.1324  -6.2979  -6.2979  -6.1718  -6.1718  -5.9053  -5.0101
    -4.1559  -4.1559  -4.1358  -4.1358  -4.0380  -4.0380  -4.0210  -3.9698
    -3.8708  -3.8708  -3.3822  -2.9803  -2.6865  -2.6865  -2.1423  -0.4064
    -0.4064  -0.3655  -0.3299  -0.1902   0.1403   0.1403   0.2557   0.2557
     0.3437   0.5749   0.7922   0.7922   0.9540   0.9570   0.9570   1.0125
     1.0125   1.0426   1.3120   1.3120   3.0127   3.8134   3.8134   4.0039
     4.1795   4.1795   4.1875   4.2103   4.2300   4.2300   4.3900   4.3900
     4.4420   4.4420   4.5511   4.6169   4.6223   4.6223   4.6360   4.7186
     4.7186   4.8610   4.9208   4.9208   4.9865   5.1642   5.1642   5.2390
     5.3131   5.3131   5.3561   5.3898   5.3898   5.9827   5.9827   6.0220
     6.5837   6.5837   6.6811   6.9020   6.9686   6.9686   7.4535   8.2521
     8.2521   8.3559   8.4248   8.4248   8.5997   8.5997   8.7498   8.7587
     8.7696   8.7696   8.8365   8.8365   8.8542   9.2226   9.2272   9.2272
     9.6210   9.6210   9.8548   9.8628   9.8628   9.8637   9.8700   9.9177
     9.9177   9.9523   9.9523   9.9533  10.0545  10.0545  10.2599  10.2739
    10.2739  10.5610  12.1679  12.3764  12.3764  13.5975  14.8957  14.8957
    17.2098  17.3113  17.3113  17.4520  17.5203  17.5203  17.7875  17.8760
    17.8760  17.9833  17.9833  18.2989  18.8582  18.8582  18.9223  20.5016
    20.7330  20.7330  20.8026  20.8554  20.8554  20.9513  20.9514  20.9546

     occupation numbers 
     1.0000   1.0000   1.0000   1.0000   1.0000   1.0000   1.0000   1.0000
     1.0000   1.0000   1.0000   1.0000   1.0000   1.0000   1.0000   1.0000
     1.0000   1.0000   1.0000   1.0000   1.0000   1.0000   1.0000   1.0000
     1.0000   1.0000   1.0000   1.0000   1.0000   1.0000   1.0000   1.0000
     1.0000   1.0000   1.0000   1.0000   1.0000   1.0000   1.0000   1.0000
     1.0000   1.0000   1.0000   1.0000   1.0000   1.0000   1.0000   1.0000
     1.0000   1.0000   1.0000   1.0000   1.0000   1.0000   1.0000   1.0000
     1.0000   1.0000   1.0000   1.0000   1.0000   1.0000   1.0000   1.0000
     1.0000   1.0000   1.0000   1.0000   1.0000   1.0000   1.0000   1.0000
     1.0000   1.0000   1.0000   1.0000   1.0000   1.0000   1.0000   1.0000
     1.0000   1.0000   1.0000   1.0000   1.0000   1.0000   1.0000   1.0000
     1.0000   1.0000   1.0000   1.0000   1.0000   1.0000   1.0000   1.0000
     1.0000   1.0000   1.0000   1.0000   1.0000   1.0000   1.0000   1.0000
     1.0000   1.0000   1.0000   1.0000   1.0000   1.0000   1.0000   1.0000
     1.0000   1.0000   1.0000   1.0000   1.0000   1.0000   1.0000   1.0000
     1.0000   1.0000   1.0000   1.0000   1.0000   1.0000   1.0000   1.0000
     0.0000   0.0000   0.0000   0.0000   0.0000   0.0000   0.0000   0.0000
     0.0000   0.0000   0.0000   0.0000   0.0000   0.0000   0.0000   0.0000
     0.0000   0.0000   0.0000   0.0000   0.0000   0.0000   0.0000   0.0000

          k = 0.0000 0.0000 0.3333 ( 24280 PWs)   bands (ev):

    -8.3974  -7.6179  -6.6926  -6.0539  -5.9308  -5.8362  -5.5164  -5.3092
    -5.1786  -5.0113  -4.5378  -4.1470  -3.8386  -3.8146  -3.6984  -3.4460
    -3.2334  -3.1579  -2.9450  -2.6165  -2.5202  -2.3892  -2.3371  -1.8030
    -0.8774  -0.7111  -0.5864  -0.3701   0.1419   0.2319   0.3337   0.3914
     0.4648   0.5415   0.5564   0.6534   0.7284   0.7337   0.9684   1.4528
     1.9678   1.9979   2.1458   2.1981   2.3907   2.4632   2.4675   2.7355
     2.9375   2.9871   3.1483   3.1566   3.8588   3.9347   4.0399   4.0552
     4.2758   4.3349   4.4860   4.5312   5.0361   5.0760   5.1118   5.1890
     5.1897   5.5722   5.5946   5.6972   5.7352   6.0312   6.0815   6.1619
     6.1726   6.3062   6.3772   6.4525   6.4857   6.5764   6.6014   6.7393
     6.7433   6.8774   6.8903   6.9194   7.1242   7.1497   7.1740   7.2532
     7.3809   7.4560   7.6523   7.7594   7.8185   8.0433   8.1219   8.2639
     8.2999   8.4326   8.6253   8.6865   8.7552   9.0615   9.1527   9.3393
     9.3532   9.6127   9.6312   9.7004   9.7732   9.9039   9.9236   9.9326
     9.9506  10.0075  10.0859  10.1059  10.1710  10.2528  10.2701  10.3437
    10.3766  11.0298  11.6762  11.6834  11.9396  13.3079  14.5829  14.7488
    17.1586  17.2820  17.9276  18.2496  18.3304  18.4752  18.5051  18.5876
    18.8071  18.8272  18.9805  19.0593  19.1680  19.7856  19.8357  20.3884
    20.6370  20.6480  20.7715  20.7816  20.8206  20.8279  20.8902  20.9399

     occupation numbers 
     1.0000   1.0000   1.0000   1.0000   1.0000   1.0000   1.0000   1.0000
     1.0000   1.0000   1.0000   1.0000   1.0000   1.0000   1.0000   1.0000
     1.0000   1.0000   1.0000   1.0000   1.0000   1.0000   1.0000   1.0000
     1.0000   1.0000   1.0000   1.0000   1.0000   1.0000   1.0000   1.0000
     1.0000   1.0000   1.0000   1.0000   1.0000   1.0000   1.0000   1.0000
     1.0000   1.0000   1.0000   1.0000   1.0000   1.0000   1.0000   1.0000
     1.0000   1.0000   1.0000   1.0000   1.0000   1.0000   1.0000   1.0000
     1.0000   1.0000   1.0000   1.0000   1.0000   1.0000   1.0000   1.0000
     1.0000   1.0000   1.0000   1.0000   1.0000   1.0000   1.0000   1.0000
     1.0000   1.0000   1.0000   1.0000   1.0000   1.0000   1.0000   1.0000
     1.0000   1.0000   1.0000   1.0000   1.0000   1.0000   1.0000   1.0000
     1.0000   1.0000   1.0000   1.0000   1.0000   1.0000   1.0000   1.0000
     1.0000   1.0000   1.0000   1.0000   1.0000   1.0000   1.0000   1.0000
     1.0000   1.0000   1.0000   1.0000   1.0000   1.0000   1.0000   1.0000
     1.0000   1.0000   1.0000   1.0000   1.0000   1.0000   1.0000   1.0000
     1.0000   1.0000   1.0000   1.0000   1.0000   1.0000   1.0000   1.0000
     0.0000   0.0000   0.0000   0.0000   0.0000   0.0000   0.0000   0.0000
     0.0000   0.0000   0.0000   0.0000   0.0000   0.0000   0.0000   0.0000
     0.0000   0.0000   0.0000   0.0000   0.0000   0.0000   0.0000   0.0000

          k = 0.0000 0.3333 0.3333 ( 24236 PWs)   bands (ev):

    -8.2013  -7.4588  -7.2401  -6.6151  -6.0099  -5.6901  -5.3638  -5.0323
    -4.9958  -4.8645  -4.5185  -4.2694  -4.2369  -3.9498  -3.5730  -3.5282
    -2.8111  -2.3916  -2.3400  -2.3323  -2.2056  -2.1967  -2.0594  -1.9083
    -1.5050  -1.3258  -1.1111  -0.9282  -0.5791  -0.0539   0.0570   0.1156
     0.1624   0.4532   0.6714   1.1681   1.1785   1.3010   1.3677   1.3696
     1.4342   1.4531   1.9361   2.0538   2.1120   2.3827   2.7228   2.8145
     2.9444   3.4838   3.6393   3.6537   3.7648   3.7999   3.9562   4.0177
     4.0948   4.5305   4.6433   4.7924   5.0134   5.0172   5.1363   5.2934
     5.3291   5.5733   5.6166   5.6667   5.7313   5.9262   5.9966   6.0624
     6.1386   6.2220   6.2696   6.4788   6.5214   6.5835   6.6406   6.8345
     6.9073   6.9351   6.9952   7.0354   7.2212   7.2634   7.4761   7.6694
     7.9191   7.9203   8.0574   8.0622   8.1109   8.2141   8.2610   8.3049
     8.3270   8.4000   8.5258   8.6156   8.6781   8.7087   8.8358   8.8687
     9.0619   9.1646   9.2310   9.2974   9.4487   9.4671   9.5405   9.6290
     9.6941   9.7804   9.8949  10.0330  10.0487  10.1138  10.3798  10.6441
    10.9822  11.1840  11.5557  11.5653  12.1903  13.1053  14.5098  14.8262
    17.9951  18.1776  18.2171  18.2954  18.3371  18.7820  18.8552  18.9333
    19.1626  19.2037  19.4367  19.4695  19.6808  19.7755  19.9611  19.9804
    20.1762  20.4275  20.4639  20.4934  20.5575  20.5681  20.6106  20.6232

     occupation numbers 
     1.0000   1.0000   1.0000   1.0000   1.0000   1.0000   1.0000   1.0000
     1.0000   1.0000   1.0000   1.0000   1.0000   1.0000   1.0000   1.0000
     1.0000   1.0000   1.0000   1.0000   1.0000   1.0000   1.0000   1.0000
     1.0000   1.0000   1.0000   1.0000   1.0000   1.0000   1.0000   1.0000
     1.0000   1.0000   1.0000   1.0000   1.0000   1.0000   1.0000   1.0000
     1.0000   1.0000   1.0000   1.0000   1.0000   1.0000   1.0000   1.0000
     1.0000   1.0000   1.0000   1.0000   1.0000   1.0000   1.0000   1.0000
     1.0000   1.0000   1.0000   1.0000   1.0000   1.0000   1.0000   1.0000
     1.0000   1.0000   1.0000   1.0000   1.0000   1.0000   1.0000   1.0000
     1.0000   1.0000   1.0000   1.0000   1.0000   1.0000   1.0000   1.0000
     1.0000   1.0000   1.0000   1.0000   1.0000   1.0000   1.0000   1.0000
     1.0000   1.0000   1.0000   1.0000   1.0000   1.0000   1.0000   1.0000
     1.0000   1.0000   1.0000   1.0000   1.0000   1.0000   1.0000   1.0000
     1.0000   1.0000   1.0000   1.0000   1.0000   1.0000   1.0000   1.0000
     1.0000   1.0000   1.0000   1.0000   1.0000   1.0000   1.0000   1.0000
     1.0000   1.0000   1.0000   1.0000   1.0000   1.0000   1.0000   1.0000
     0.0000   0.0000   0.0000   0.0000   0.0000   0.0000   0.0000   0.0000
     0.0000   0.0000   0.0000   0.0000   0.0000   0.0000   0.0000   0.0000
     0.0000   0.0000   0.0000   0.0000   0.0000   0.0000   0.0000   0.0000

          k = 0.3333 0.3333 0.3333 ( 24303 PWs)   bands (ev):

    -8.0322  -7.2885  -6.9920  -6.9920  -6.3323  -6.2335  -6.2335  -5.4843
    -4.2812  -4.0452  -4.0452  -3.5763  -3.3921  -3.3921  -3.3477  -3.3477
    -3.3176  -2.9234  -2.6726  -2.6726  -1.9612  -1.9308  -1.9308  -1.5517
    -1.4660  -1.4660  -1.4028  -1.4028  -1.3537  -1.2308  -1.2308   0.0163
     0.8491   0.8491   0.9541   0.9658   0.9658   1.2679   1.8104   1.8104
     1.8669   1.8863   1.9893   1.9893   2.5529   2.5529   2.5899   2.7005
     2.7178   2.7178   3.1243   3.1243   3.5176   4.0389   4.2945   4.2945
     4.7964   4.8907   4.8907   4.9395   5.0799   5.0799   5.1301   5.2995
     5.2995   5.4045   5.4851   5.4851   5.5351   5.5351   5.6058   6.3327
     6.6606   6.6606   6.9249   6.9721   6.9770   6.9770   7.0678   7.0678
     7.1932   7.1932   7.2375   7.2444   7.2444   7.2641   7.3512   7.3512
     7.3573   7.4640   7.7277   7.7277   7.9111   7.9111   7.9619   7.9900
     8.1797   8.1797   8.2899   8.2899   8.2982   8.4278   8.4745   8.4745
     8.6714   8.6714   8.7576   9.0478   9.0822   9.5110   9.5110   9.7652
     9.7652  10.4777  10.4777  10.4800  10.4930  10.9252  10.9252  11.1270
    11.2720  11.2720  11.2762  11.6464  11.6464  12.9836  14.8052  14.8052
    18.0280  18.2262  18.2262  18.4380  18.6379  18.6379  19.1624  19.3662
    19.3662  19.5353  19.5353  19.5887  19.6046  19.6046  19.6352  19.7453
    19.7453  19.8670  19.9086  19.9086  19.9879  19.9880  20.0267  20.1341

     occupation numbers 
     1.0000   1.0000   1.0000   1.0000   1.0000   1.0000   1.0000   1.0000
     1.0000   1.0000   1.0000   1.0000   1.0000   1.0000   1.0000   1.0000
     1.0000   1.0000   1.0000   1.0000   1.0000   1.0000   1.0000   1.0000
     1.0000   1.0000   1.0000   1.0000   1.0000   1.0000   1.0000   1.0000
     1.0000   1.0000   1.0000   1.0000   1.0000   1.0000   1.0000   1.0000
     1.0000   1.0000   1.0000   1.0000   1.0000   1.0000   1.0000   1.0000
     1.0000   1.0000   1.0000   1.0000   1.0000   1.0000   1.0000   1.0000
     1.0000   1.0000   1.0000   1.0000   1.0000   1.0000   1.0000   1.0000
     1.0000   1.0000   1.0000   1.0000   1.0000   1.0000   1.0000   1.0000
     1.0000   1.0000   1.0000   1.0000   1.0000   1.0000   1.0000   1.0000
     1.0000   1.0000   1.0000   1.0000   1.0000   1.0000   1.0000   1.0000
     1.0000   1.0000   1.0000   1.0000   1.0000   1.0000   1.0000   1.0000
     1.0000   1.0000   1.0000   1.0000   1.0000   1.0000   1.0000   1.0000
     1.0000   1.0000   1.0000   1.0000   1.0000   1.0000   1.0000   1.0000
     1.0000   1.0000   1.0000   1.0000   1.0000   1.0000   1.0000   1.0000
     1.0000   1.0000   1.0000   1.0000   1.0000   1.0000   1.0000   1.0000
     0.0000   0.0000   0.0000   0.0000   0.0000   0.0000   0.0000   0.0000
     0.0000   0.0000   0.0000   0.0000   0.0000   0.0000   0.0000   0.0000
     0.0000   0.0000   0.0000   0.0000   0.0000   0.0000   0.0000   0.0000

          k =-0.3333 0.0000 0.3333 ( 24236 PWs)   bands (ev):

    -8.1872  -7.5691  -7.1137  -6.6085  -6.0511  -5.6943  -5.4025  -5.0494
    -4.9441  -4.7773  -4.5437  -4.3129  -4.2315  -4.0686  -3.6179  -3.3417
    -2.8158  -2.4326  -2.3755  -2.2991  -2.2083  -2.1573  -2.1208  -1.6767
    -1.6483  -1.3294  -1.1297  -0.9989  -0.6233  -0.0251   0.0644   0.1068
     0.2535   0.4685   0.8651   1.0296   1.1905   1.2117   1.2283   1.3840
     1.4714   1.5770   1.8316   1.8787   2.1206   2.5624   2.6516   2.8548
     2.9443   3.4714   3.6328   3.6940   3.7474   3.8931   4.0061   4.1161
     4.1657   4.3689   4.5737   4.7822   4.9505   4.9927   5.1728   5.2340
     5.3848   5.5381   5.6270   5.6634   5.7751   5.9908   6.0702   6.1134
     6.1616   6.2169   6.2579   6.4075   6.4528   6.6075   6.6258   6.8022
     6.8808   6.9487   6.9964   7.0857   7.2012   7.3670   7.4760   7.6419
     7.8195   7.8747   7.9396   8.0599   8.1666   8.2106   8.2484   8.2656
     8.3504   8.4251   8.5146   8.5767   8.7086   8.7453   8.8837   8.9659
     9.0590   9.1230   9.2147   9.3081   9.4239   9.4799   9.4961   9.6462
     9.7118   9.7374   9.9254  10.0328  10.0620  10.1090  10.4727  10.7285
    10.8814  11.1272  11.4397  11.5565  12.2161  13.3870  14.4218  14.7224
    17.9759  18.1908  18.2407  18.2947  18.3611  18.7664  18.9206  19.0922
    19.1052  19.2605  19.3315  19.4638  19.6937  19.8239  19.8515  19.9948
    20.2025  20.3213  20.3842  20.4912  20.5433  20.5591  20.6283  20.6756

     occupation numbers 
     1.0000   1.0000   1.0000   1.0000   1.0000   1.0000   1.0000   1.0000
     1.0000   1.0000   1.0000   1.0000   1.0000   1.0000   1.0000   1.0000
     1.0000   1.0000   1.0000   1.0000   1.0000   1.0000   1.0000   1.0000
     1.0000   1.0000   1.0000   1.0000   1.0000   1.0000   1.0000   1.0000
     1.0000   1.0000   1.0000   1.0000   1.0000   1.0000   1.0000   1.0000
     1.0000   1.0000   1.0000   1.0000   1.0000   1.0000   1.0000   1.0000
     1.0000   1.0000   1.0000   1.0000   1.0000   1.0000   1.0000   1.0000
     1.0000   1.0000   1.0000   1.0000   1.0000   1.0000   1.0000   1.0000
     1.0000   1.0000   1.0000   1.0000   1.0000   1.0000   1.0000   1.0000
     1.0000   1.0000   1.0000   1.0000   1.0000   1.0000   1.0000   1.0000
     1.0000   1.0000   1.0000   1.0000   1.0000   1.0000   1.0000   1.0000
     1.0000   1.0000   1.0000   1.0000   1.0000   1.0000   1.0000   1.0000
     1.0000   1.0000   1.0000   1.0000   1.0000   1.0000   1.0000   1.0000
     1.0000   1.0000   1.0000   1.0000   1.0000   1.0000   1.0000   1.0000
     1.0000   1.0000   1.0000   1.0000   1.0000   1.0000   1.0000   1.0000
     1.0000   1.0000   1.0000   1.0000   1.0000   1.0000   1.0000   1.0000
     0.0000   0.0000   0.0000   0.0000   0.0000   0.0000   0.0000   0.0000
     0.0000   0.0000   0.0000   0.0000   0.0000   0.0000   0.0000   0.0000
     0.0000   0.0000   0.0000   0.0000   0.0000   0.0000   0.0000   0.0000

          k = 0.3333-0.3333 0.3333 ( 24303 PWs)   bands (ev):

    -8.0075  -7.4220  -6.9924  -6.8349  -6.4999  -6.2323  -6.0028  -5.5256
    -4.5761  -4.0456  -3.9487  -3.7377  -3.4431  -3.3743  -3.3328  -3.2225
    -3.0852  -2.8969  -2.6987  -2.4458  -2.1113  -1.9073  -1.8639  -1.7336
    -1.4938  -1.4876  -1.4348  -1.3673  -1.3569  -1.2516  -1.1821  -0.1161
     0.7236   0.8579   0.9333   0.9748   1.0544   1.4037   1.7080   1.7551
     1.8535   1.9328   2.0311   2.2152   2.5603   2.5867   2.6783   2.7067
     2.7147   2.7698   2.8939   3.1601   3.4752   3.9621   4.2161   4.2987
     4.7739   4.7797   4.8209   4.9970   5.0125   5.0492   5.1680   5.2376
     5.2563   5.4116   5.4262   5.5105   5.6560   5.7737   5.8138   6.4247
     6.6248   6.7144   6.9035   6.9172   6.9594   7.0288   7.0708   7.0788
     7.1494   7.1499   7.2192   7.2463   7.2635   7.3142   7.3444   7.3523
     7.3724   7.4487   7.7165   7.7207   7.8105   7.9071   7.9416   7.9457
     8.1300   8.1529   8.2539   8.2780   8.3471   8.3892   8.4048   8.4867
     8.6866   8.7192   8.9183   8.9984   9.0713   9.5125   9.5728   9.5913
     9.8414  10.3831  10.4233  10.5125  10.5372  10.8614  10.9158  11.1327
    11.2228  11.2477  11.2843  11.7137  11.7205  13.3685  14.4957  14.8029
    18.0332  18.2606  18.3189  18.5054  18.6410  18.7067  19.1287  19.3546
    19.4388  19.4840  19.5152  19.5501  19.5919  19.6225  19.6416  19.7081
    19.7460  19.7817  19.8946  19.8961  19.9731  19.9837  20.0379  20.1422

     occupation numbers 
     1.0000   1.0000   1.0000   1.0000   1.0000   1.0000   1.0000   1.0000
     1.0000   1.0000   1.0000   1.0000   1.0000   1.0000   1.0000   1.0000
     1.0000   1.0000   1.0000   1.0000   1.0000   1.0000   1.0000   1.0000
     1.0000   1.0000   1.0000   1.0000   1.0000   1.0000   1.0000   1.0000
     1.0000   1.0000   1.0000   1.0000   1.0000   1.0000   1.0000   1.0000
     1.0000   1.0000   1.0000   1.0000   1.0000   1.0000   1.0000   1.0000
     1.0000   1.0000   1.0000   1.0000   1.0000   1.0000   1.0000   1.0000
     1.0000   1.0000   1.0000   1.0000   1.0000   1.0000   1.0000   1.0000
     1.0000   1.0000   1.0000   1.0000   1.0000   1.0000   1.0000   1.0000
     1.0000   1.0000   1.0000   1.0000   1.0000   1.0000   1.0000   1.0000
     1.0000   1.0000   1.0000   1.0000   1.0000   1.0000   1.0000   1.0000
     1.0000   1.0000   1.0000   1.0000   1.0000   1.0000   1.0000   1.0000
     1.0000   1.0000   1.0000   1.0000   1.0000   1.0000   1.0000   1.0000
     1.0000   1.0000   1.0000   1.0000   1.0000   1.0000   1.0000   1.0000
     1.0000   1.0000   1.0000   1.0000   1.0000   1.0000   1.0000   1.0000
     1.0000   1.0000   1.0000   1.0000   1.0000   1.0000   1.0000   1.0000
     0.0000   0.0000   0.0000   0.0000   0.0000   0.0000   0.0000   0.0000
     0.0000   0.0000   0.0000   0.0000   0.0000   0.0000   0.0000   0.0000
     0.0000   0.0000   0.0000   0.0000   0.0000   0.0000   0.0000   0.0000

 ------ SPIN DOWN ----------


          k = 0.0000 0.0000 0.0000 ( 24207 PWs)   bands (ev):

    -8.5782  -7.0586  -6.2794  -6.2794  -6.1359  -6.1359  -5.8682  -4.9643
    -4.1366  -4.1366  -4.1183  -4.1183  -4.0005  -3.9877  -3.9877  -3.9543
    -3.8324  -3.8324  -3.3398  -2.9524  -2.6397  -2.6397  -2.0176  -0.3887
    -0.3887  -0.3453  -0.3025  -0.1130   0.1585   0.1585   0.2885   0.2885
     0.3645   0.6129   0.8064   0.8064   0.9823   0.9823   0.9835   1.0287
     1.0287   1.0544   1.4538   1.4538   3.1245   3.8481   3.8481   4.0373
     4.2071   4.2146   4.2146   4.2454   4.2454   4.2493   4.4222   4.4222
     4.4723   4.4723   4.5691   4.6405   4.6405   4.6451   4.6474   4.7551
     4.7551   4.8806   4.9478   4.9478   5.0742   5.1979   5.1979   5.2709
     5.3244   5.3244   5.3652   5.4395   5.4395   6.0359   6.0359   6.0712
     6.6124   6.6124   6.7073   6.9768   7.0479   7.0479   7.6237   8.2911
     8.2911   8.3971   8.4558   8.4558   8.6333   8.6333   8.7714   8.7878
     8.7878   8.8252   8.8712   8.8767   8.8767   9.2578   9.2583   9.2583
     9.6512   9.6512   9.8653   9.8764   9.8824   9.8824   9.8997   9.9361
     9.9361   9.9702   9.9773   9.9773  10.0868  10.0868  10.3062  10.3244
    10.3244  11.0436  12.4912  12.4912  12.4954  14.3008  15.9899  15.9899
    17.2536  17.3297  17.3297  17.4758  17.5680  17.5680  17.8227  17.8971
    17.8971  18.0188  18.0188  18.4155  18.9339  18.9339  18.9714  20.5708
    20.7487  20.7487  20.8141  20.8799  20.8800  20.9724  20.9735  20.9736

     occupation numbers 
     1.0000   1.0000   1.0000   1.0000   1.0000   1.0000   1.0000   1.0000
     1.0000   1.0000   1.0000   1.0000   1.0000   1.0000   1.0000   1.0000
     1.0000   1.0000   1.0000   1.0000   1.0000   1.0000   1.0000   1.0000
     1.0000   1.0000   1.0000   1.0000   1.0000   1.0000   1.0000   1.0000
     1.0000   1.0000   1.0000   1.0000   1.0000   1.0000   1.0000   1.0000
     1.0000   1.0000   1.0000   1.0000   1.0000   1.0000   1.0000   1.0000
     1.0000   1.0000   1.0000   1.0000   1.0000   1.0000   1.0000   1.0000
     1.0000   1.0000   1.0000   1.0000   1.0000   1.0000   1.0000   1.0000
     1.0000   1.0000   1.0000   1.0000   1.0000   1.0000   1.0000   1.0000
     1.0000   1.0000   1.0000   1.0000   1.0000   1.0000   1.0000   1.0000
     1.0000   1.0000   1.0000   1.0000   1.0000   1.0000   1.0000   1.0000
     1.0000   1.0000   1.0000   1.0000   1.0000   1.0000   1.0000   1.0000
     1.0000   1.0000   1.0000   1.0000   1.0000   1.0000   1.0000   1.0000
     1.0000   1.0000   1.0000   1.0000   1.0000   1.0000   1.0000   1.0000
     1.0000   1.0000   1.0000   1.0000   1.0000   1.0000   1.0000   1.0000
     1.0000   1.0000   1.0000   1.0000   1.0000   0.0000   1.0000   0.0000
     0.0000   0.0000   0.0000   0.0000   0.0000   0.0000   0.0000   0.0000
     0.0000   0.0000   0.0000   0.0000   0.0000   0.0000   0.0000   0.0000
     0.0000   0.0000   0.0000   0.0000   0.0000   0.0000   0.0000   0.0000

          k = 0.0000 0.0000 0.3333 ( 24280 PWs)   bands (ev):

    -8.3581  -7.5770  -6.6266  -6.0354  -5.8974  -5.8101  -5.4932  -5.2902
    -5.1361  -4.9621  -4.5028  -4.1197  -3.7998  -3.7891  -3.6708  -3.4187
    -3.1928  -3.1152  -2.9059  -2.5886  -2.5004  -2.3465  -2.2907  -1.7221
    -0.8255  -0.6907  -0.5508  -0.3123   0.1824   0.2494   0.3577   0.4124
     0.4917   0.5750   0.5809   0.6794   0.7531   0.7717   1.0517   1.5114
     2.0034   2.0191   2.1836   2.2295   2.4349   2.5023   2.5040   2.7638
     2.9736   3.0084   3.2160   3.2432   3.8802   3.9718   4.0644   4.0743
     4.2961   4.3844   4.5259   4.5731   5.0744   5.1380   5.1560   5.2168
     5.2268   5.6094   5.6193   5.7342   5.7769   6.0658   6.1077   6.2010
     6.2064   6.3257   6.4071   6.4738   6.5276   6.6251   6.6371   6.7660
     6.7732   6.9139   6.9202   6.9606   7.1635   7.1684   7.2064   7.2882
     7.4284   7.5017   7.7385   7.8005   7.8703   8.0663   8.1532   8.3019
     8.3217   8.4558   8.6861   8.7457   8.7902   9.1199   9.2341   9.3849
     9.3927   9.6514   9.6606   9.7164   9.8094   9.9161   9.9499   9.9560
     9.9961  10.0379  10.1238  10.1437  10.2022  10.2949  10.3076  10.4209
    10.4266  11.3035  11.7400  11.7993  12.1249  14.1902  15.6893  15.8882
    17.1969  17.3151  17.9553  18.2829  18.3483  18.4979  18.5288  18.6297
    18.8447  18.8468  19.0230  19.1050  19.2558  19.8402  19.8806  20.4437
    20.6565  20.6849  20.7900  20.7976  20.8341  20.8558  20.9191  20.9610

     occupation numbers 
     1.0000   1.0000   1.0000   1.0000   1.0000   1.0000   1.0000   1.0000
     1.0000   1.0000   1.0000   1.0000   1.0000   1.0000   1.0000   1.0000
     1.0000   1.0000   1.0000   1.0000   1.0000   1.0000   1.0000   1.0000
     1.0000   1.0000   1.0000   1.0000   1.0000   1.0000   1.0000   1.0000
     1.0000   1.0000   1.0000   1.0000   1.0000   1.0000   1.0000   1.0000
     1.0000   1.0000   1.0000   1.0000   1.0000   1.0000   1.0000   1.0000
     1.0000   1.0000   1.0000   1.0000   1.0000   1.0000   1.0000   1.0000
     1.0000   1.0000   1.0000   1.0000   1.0000   1.0000   1.0000   1.0000
     1.0000   1.0000   1.0000   1.0000   1.0000   1.0000   1.0000   1.0000
     1.0000   1.0000   1.0000   1.0000   1.0000   1.0000   1.0000   1.0000
     1.0000   1.0000   1.0000   1.0000   1.0000   1.0000   1.0000   1.0000
     1.0000   1.0000   1.0000   1.0000   1.0000   1.0000   1.0000   1.0000
     1.0000   1.0000   1.0000   1.0000   1.0000   1.0000   1.0000   1.0000
     1.0000   1.0000   1.0000   1.0000   1.0000   1.0000   1.0000   1.0000
     1.0000   1.0000   1.0000   1.0000   1.0000   1.0000   1.0000   1.0000
     1.0000   1.0000   1.0000   1.0000   1.0000   0.0000   1.0000   0.0000
     0.0000   0.0000   0.0000   0.0000   0.0000   0.0000   0.0000   0.0000
     0.0000   0.0000   0.0000   0.0000   0.0000   0.0000   0.0000   0.0000
     0.0000   0.0000   0.0000   0.0000   0.0000   0.0000   0.0000   0.0000

          k = 0.0000 0.3333 0.3333 ( 24236 PWs)   bands (ev):

    -8.1578  -7.4126  -7.2126  -6.5743  -5.9702  -5.6606  -5.3263  -4.9945
    -4.9773  -4.8396  -4.4740  -4.2427  -4.2069  -3.9030  -3.5258  -3.4990
    -2.7721  -2.3704  -2.3109  -2.3086  -2.1700  -2.1659  -2.0136  -1.8667
    -1.4706  -1.2972  -1.0651  -0.8810  -0.4986  -0.0076   0.0761   0.1377
     0.1996   0.4966   0.7150   1.1931   1.1998   1.3212   1.4007   1.4067
     1.4700   1.4948   1.9634   2.1051   2.1761   2.4417   2.7458   2.8609
     2.9904   3.5408   3.6664   3.6768   3.8002   3.8222   3.9992   4.0424
     4.1449   4.5966   4.6725   4.8459   5.0392   5.0479   5.1690   5.3238
     5.3723   5.6122   5.6435   5.7206   5.7715   5.9542   6.0359   6.0985
     6.1514   6.2561   6.3013   6.5140   6.5425   6.6152   6.6761   6.8698
     6.9280   6.9606   7.0557   7.0643   7.2605   7.3055   7.5322   7.7239
     7.9555   7.9956   8.0824   8.0948   8.1348   8.2439   8.2926   8.3428
     8.3642   8.4238   8.5661   8.6443   8.7305   8.7337   8.8849   8.9032
     9.0869   9.2151   9.2607   9.3400   9.4884   9.5033   9.6018   9.6540
     9.7403   9.8230   9.9287  10.0746  10.0886  10.1453  10.4510  10.7775
    11.0796  11.2470  11.5826  11.8479  12.2593  14.0709  15.6335  15.9305
    18.0435  18.2055  18.2570  18.3180  18.3698  18.8082  18.8768  18.9669
    19.1986  19.2352  19.4703  19.4969  19.7089  19.8174  19.9913  20.0212
    20.2078  20.4536  20.4861  20.5182  20.5831  20.5982  20.6286  20.6528

     occupation numbers 
     1.0000   1.0000   1.0000   1.0000   1.0000   1.0000   1.0000   1.0000
     1.0000   1.0000   1.0000   1.0000   1.0000   1.0000   1.0000   1.0000
     1.0000   1.0000   1.0000   1.0000   1.0000   1.0000   1.0000   1.0000
     1.0000   1.0000   1.0000   1.0000   1.0000   1.0000   1.0000   1.0000
     1.0000   1.0000   1.0000   1.0000   1.0000   1.0000   1.0000   1.0000
     1.0000   1.0000   1.0000   1.0000   1.0000   1.0000   1.0000   1.0000
     1.0000   1.0000   1.0000   1.0000   1.0000   1.0000   1.0000   1.0000
     1.0000   1.0000   1.0000   1.0000   1.0000   1.0000   1.0000   1.0000
     1.0000   1.0000   1.0000   1.0000   1.0000   1.0000   1.0000   1.0000
     1.0000   1.0000   1.0000   1.0000   1.0000   1.0000   1.0000   1.0000
     1.0000   1.0000   1.0000   1.0000   1.0000   1.0000   1.0000   1.0000
     1.0000   1.0000   1.0000   1.0000   1.0000   1.0000   1.0000   1.0000
     1.0000   1.0000   1.0000   1.0000   1.0000   1.0000   1.0000   1.0000
     1.0000   1.0000   1.0000   1.0000   1.0000   1.0000   1.0000   1.0000
     1.0000   1.0000   1.0000   1.0000   1.0000   1.0000   1.0000   1.0000
     1.0000   1.0000   1.0000   1.0000   1.0000   0.0000   1.0000   0.0000
     0.0000   0.0000   0.0000   0.0000   0.0000   0.0000   0.0000   0.0000
     0.0000   0.0000   0.0000   0.0000   0.0000   0.0000   0.0000   0.0000
     0.0000   0.0000   0.0000   0.0000   0.0000   0.0000   0.0000   0.0000

          k = 0.3333 0.3333 0.3333 ( 24303 PWs)   bands (ev):

    -7.9821  -7.2423  -6.9654  -6.9654  -6.2965  -6.2038  -6.2038  -5.4339
    -4.2103  -4.0197  -4.0197  -3.5359  -3.3629  -3.3629  -3.3186  -3.3186
    -3.2972  -2.8990  -2.6282  -2.6282  -1.9361  -1.9102  -1.9102  -1.5296
    -1.4471  -1.4471  -1.3774  -1.3774  -1.3317  -1.1410  -1.1410   0.1432
     0.8729   0.8729   0.9929   0.9929   1.0209   1.3036   1.8366   1.8366
     1.8816   1.9375   2.0235   2.0235   2.5785   2.5785   2.6187   2.7180
     2.7459   2.7459   3.2102   3.2102   3.5548   4.1143   4.3223   4.3223
     4.8585   4.9302   4.9302   4.9565   5.1025   5.1025   5.1836   5.3308
     5.3308   5.4302   5.5118   5.5118   5.5725   5.5725   5.6588   6.4260
     6.7100   6.7100   6.9381   7.0026   7.0026   7.0133   7.0918   7.0918
     7.2161   7.2161   7.2512   7.2687   7.2687   7.2908   7.3822   7.3822
     7.3822   7.5221   7.7684   7.7684   7.9374   7.9374   7.9838   8.0109
     8.2116   8.2116   8.3155   8.3155   8.3185   8.4423   8.5236   8.5236
     8.7064   8.7064   8.8569   9.0858   9.1578   9.5625   9.5625   9.8434
     9.8434  10.5032  10.5032  10.5158  10.6223  10.9786  10.9786  11.2985
    11.2985  11.2997  11.5732  11.6863  11.6863  13.9130  15.9426  15.9426
    18.0896  18.2505  18.2505  18.4638  18.6683  18.6683  19.1962  19.3813
    19.3813  19.5578  19.5578  19.6027  19.6289  19.6289  19.6552  19.7630
    19.7630  19.8920  19.9381  19.9381  20.0262  20.0262  20.0409  20.1660

     occupation numbers 
     1.0000   1.0000   1.0000   1.0000   1.0000   1.0000   1.0000   1.0000
     1.0000   1.0000   1.0000   1.0000   1.0000   1.0000   1.0000   1.0000
     1.0000   1.0000   1.0000   1.0000   1.0000   1.0000   1.0000   1.0000
     1.0000   1.0000   1.0000   1.0000   1.0000   1.0000   1.0000   1.0000
     1.0000   1.0000   1.0000   1.0000   1.0000   1.0000   1.0000   1.0000
     1.0000   1.0000   1.0000   1.0000   1.0000   1.0000   1.0000   1.0000
     1.0000   1.0000   1.0000   1.0000   1.0000   1.0000   1.0000   1.0000
     1.0000   1.0000   1.0000   1.0000   1.0000   1.0000   1.0000   1.0000
     1.0000   1.0000   1.0000   1.0000   1.0000   1.0000   1.0000   1.0000
     1.0000   1.0000   1.0000   1.0000   1.0000   1.0000   1.0000   1.0000
     1.0000   1.0000   1.0000   1.0000   1.0000   1.0000   1.0000   1.0000
     1.0000   1.0000   1.0000   1.0000   1.0000   1.0000   1.0000   1.0000
     1.0000   1.0000   1.0000   1.0000   1.0000   1.0000   1.0000   1.0000
     1.0000   1.0000   1.0000   1.0000   1.0000   1.0000   1.0000   1.0000
     1.0000   1.0000   1.0000   1.0000   1.0000   1.0000   1.0000   1.0000
     1.0000   1.0000   1.0000   1.0000   1.0000   0.0000   1.0000   0.0000
     0.0000   0.0000   0.0000   0.0000   0.0000   0.0000   0.0000   0.0000
     0.0000   0.0000   0.0000   0.0000   0.0000   0.0000   0.0000   0.0000
     0.0000   0.0000   0.0000   0.0000   0.0000   0.0000   0.0000   0.0000

          k =-0.3333 0.0000 0.3333 ( 24236 PWs)   bands (ev):

    -8.1430  -7.5291  -7.0830  -6.5621  -6.0149  -5.6682  -5.3619  -5.0326
    -4.9014  -4.7420  -4.5196  -4.2758  -4.1952  -4.0370  -3.5763  -3.3033
    -2.7709  -2.4083  -2.3582  -2.2769  -2.1662  -2.1269  -2.0869  -1.6557
    -1.5663  -1.2965  -1.0976  -0.9435  -0.5582  -0.0072   0.0888   0.1417
     0.2988   0.5163   0.9321   1.0585   1.2108   1.2318   1.2617   1.4034
     1.5021   1.6213   1.8837   1.9054   2.1471   2.6256   2.7040   2.8998
     2.9918   3.5171   3.6686   3.7143   3.7766   3.9204   4.0474   4.1462
     4.2298   4.4225   4.6091   4.8350   4.9717   5.0235   5.2050   5.2687
     5.4262   5.5787   5.6521   5.7085   5.8211   6.0225   6.0855   6.1464
     6.1916   6.2478   6.2959   6.4407   6.4862   6.6317   6.6569   6.8218
     6.9045   6.9741   7.0354   7.1338   7.2549   7.4216   7.5336   7.6800
     7.9084   7.9249   7.9667   8.0753   8.1946   8.2326   8.2736   8.3004
     8.3839   8.4619   8.5705   8.6031   8.7547   8.7738   8.9166   8.9919
     9.1026   9.1569   9.2598   9.3482   9.4697   9.5220   9.5260   9.6872
     9.7486   9.7942   9.9545  10.0628  10.0972  10.1502  10.5188  10.9387
    10.9729  11.2001  11.5014  11.7236  12.3648  14.2999  15.5278  15.8429
    18.0116  18.2174  18.2693  18.3240  18.3943  18.7889  18.9461  19.1228
    19.1319  19.2894  19.3959  19.4969  19.7243  19.8708  19.8816  20.0391
    20.2346  20.3534  20.4145  20.5101  20.5641  20.5845  20.6514  20.7020

     occupation numbers 
     1.0000   1.0000   1.0000   1.0000   1.0000   1.0000   1.0000   1.0000
     1.0000   1.0000   1.0000   1.0000   1.0000   1.0000   1.0000   1.0000
     1.0000   1.0000   1.0000   1.0000   1.0000   1.0000   1.0000   1.0000
     1.0000   1.0000   1.0000   1.0000   1.0000   1.0000   1.0000   1.0000
     1.0000   1.0000   1.0000   1.0000   1.0000   1.0000   1.0000   1.0000
     1.0000   1.0000   1.0000   1.0000   1.0000   1.0000   1.0000   1.0000
     1.0000   1.0000   1.0000   1.0000   1.0000   1.0000   1.0000   1.0000
     1.0000   1.0000   1.0000   1.0000   1.0000   1.0000   1.0000   1.0000
     1.0000   1.0000   1.0000   1.0000   1.0000   1.0000   1.0000   1.0000
     1.0000   1.0000   1.0000   1.0000   1.0000   1.0000   1.0000   1.0000
     1.0000   1.0000   1.0000   1.0000   1.0000   1.0000   1.0000   1.0000
     1.0000   1.0000   1.0000   1.0000   1.0000   1.0000   1.0000   1.0000
     1.0000   1.0000   1.0000   1.0000   1.0000   1.0000   1.0000   1.0000
     1.0000   1.0000   1.0000   1.0000   1.0000   1.0000   1.0000   1.0000
     1.0000   1.0000   1.0000   1.0000   1.0000   1.0000   1.0000   1.0000
     1.0000   1.0000   1.0000   1.0000   1.0000   0.0000   1.0000   0.0000
     0.0000   0.0000   0.0000   0.0000   0.0000   0.0000   0.0000   0.0000
     0.0000   0.0000   0.0000   0.0000   0.0000   0.0000   0.0000   0.0000
     0.0000   0.0000   0.0000   0.0000   0.0000   0.0000   0.0000   0.0000

          k = 0.3333-0.3333 0.3333 ( 24303 PWs)   bands (ev):

    -7.9559  -7.3820  -6.9659  -6.8062  -6.4714  -6.2023  -5.9577  -5.4790
    -4.5143  -4.0219  -3.9263  -3.6978  -3.4184  -3.3501  -3.3162  -3.1880
    -3.0548  -2.8696  -2.6585  -2.3840  -2.0657  -1.8806  -1.8324  -1.7115
    -1.4764  -1.4709  -1.4110  -1.3438  -1.3331  -1.1856  -1.0947  -0.0010
     0.7513   0.8823   0.9622   0.9999   1.0985   1.4501   1.7304   1.7911
     1.8753   1.9673   2.0618   2.2757   2.5992   2.6052   2.7010   2.7288
     2.7432   2.8230   2.9383   3.2529   3.5169   4.0233   4.2623   4.3278
     4.7964   4.8203   4.8728   5.0281   5.0342   5.0680   5.2154   5.2625
     5.2840   5.4387   5.4604   5.5442   5.7136   5.8247   5.8676   6.5114
     6.6535   6.7481   6.9302   6.9465   6.9752   7.0523   7.0866   7.1169
     7.1735   7.1790   7.2408   7.2765   7.2847   7.3541   7.3749   7.3800
     7.4027   7.4849   7.7554   7.7595   7.8547   7.9336   7.9655   7.9749
     8.1542   8.1799   8.2752   8.3110   8.3818   8.4203   8.4327   8.5329
     8.7207   8.7519   8.9751   9.0320   9.1843   9.5608   9.6110   9.6940
     9.9365  10.4078  10.5370  10.5399  10.6093  10.9620  10.9638  11.2185
    11.2475  11.3119  11.4994  11.7514  11.8242  14.2830  15.6084  15.9485
    18.0639  18.2826  18.3467  18.5405  18.6671  18.7553  19.1627  19.3767
    19.4546  19.4984  19.5342  19.5687  19.6277  19.6469  19.6718  19.7287
    19.7621  19.8099  19.9221  19.9271  19.9939  20.0016  20.0721  20.1766

     occupation numbers 
     1.0000   1.0000   1.0000   1.0000   1.0000   1.0000   1.0000   1.0000
     1.0000   1.0000   1.0000   1.0000   1.0000   1.0000   1.0000   1.0000
     1.0000   1.0000   1.0000   1.0000   1.0000   1.0000   1.0000   1.0000
     1.0000   1.0000   1.0000   1.0000   1.0000   1.0000   1.0000   1.0000
     1.0000   1.0000   1.0000   1.0000   1.0000   1.0000   1.0000   1.0000
     1.0000   1.0000   1.0000   1.0000   1.0000   1.0000   1.0000   1.0000
     1.0000   1.0000   1.0000   1.0000   1.0000   1.0000   1.0000   1.0000
     1.0000   1.0000   1.0000   1.0000   1.0000   1.0000   1.0000   1.0000
     1.0000   1.0000   1.0000   1.0000   1.0000   1.0000   1.0000   1.0000
     1.0000   1.0000   1.0000   1.0000   1.0000   1.0000   1.0000   1.0000
     1.0000   1.0000   1.0000   1.0000   1.0000   1.0000   1.0000   1.0000
     1.0000   1.0000   1.0000   1.0000   1.0000   1.0000   1.0000   1.0000
     1.0000   1.0000   1.0000   1.0000   1.0000   1.0000   1.0000   1.0000
     1.0000   1.0000   1.0000   1.0000   1.0000   1.0000   1.0000   1.0000
     1.0000   1.0000   1.0000   1.0000   1.0000   1.0000   1.0000   1.0000
     1.0000   1.0000   1.0000   1.0000   1.0000   0.0000   1.0000   0.0000
     0.0000   0.0000   0.0000   0.0000   0.0000   0.0000   0.0000   0.0000
     0.0000   0.0000   0.0000   0.0000   0.0000   0.0000   0.0000   0.0000
     0.0000   0.0000   0.0000   0.0000   0.0000   0.0000   0.0000   0.0000

     highest occupied, lowest unoccupied level (ev):    14.8957   13.9130

!    total energy              =    -724.69380230 Ry
     Harris-Foulkes estimate   =    -724.69380143 Ry
     estimated scf accuracy    <       0.00000090 Ry

     The total energy is the sum of the following terms:

     one-electron contribution =     232.25282297 Ry
     hartree contribution      =      69.50921228 Ry
     xc contribution           =    -226.43618086 Ry
     ewald contribution        =    -800.01965669 Ry

     total magnetization       =     2.00 Bohr mag/cell
     absolute magnetization    =     2.21 Bohr mag/cell

     convergence has been achieved in  10 iterations

     Writing output data file di.save
 
     init_run     :      1.64s CPU      2.03s WALL (       1 calls)
     electrons    :     28.27s CPU     28.71s WALL (       1 calls)

     Called by init_run:
     wfcinit      :      0.74s CPU      0.80s WALL (       1 calls)
     wfcinit:atom :      0.01s CPU      0.01s WALL (       2 calls)
     wfcinit:wfcr :      0.69s CPU      0.75s WALL (       2 calls)
     potinit      :      0.09s CPU      0.09s WALL (       1 calls)

     Called by electrons:
     c_bands      :     26.53s CPU     26.93s WALL (      10 calls)
     sum_band     :      1.17s CPU      1.18s WALL (      10 calls)
     v_of_rho     :      0.40s CPU      0.41s WALL (      11 calls)
     v_h          :      0.01s CPU      0.01s WALL (      11 calls)
     v_xc         :      0.39s CPU      0.40s WALL (      11 calls)
     mix_rho      :      0.07s CPU      0.08s WALL (      10 calls)

     Called by c_bands:
     init_us_2    :      0.19s CPU      0.19s WALL (      42 calls)
     cegterg      :     23.28s CPU     23.64s WALL (      20 calls)

     Called by sum_band:

     Called by *egterg:
     h_psi        :      9.26s CPU      9.38s WALL (     135 calls)
     g_psi        :      0.05s CPU      0.06s WALL (     113 calls)
     cdiaghg      :      9.90s CPU      9.94s WALL (     133 calls)
     cegterg:over :      1.82s CPU      1.82s WALL (     113 calls)
     cegterg:upda :      1.40s CPU      1.40s WALL (     113 calls)
     cegterg:last :      0.52s CPU      0.52s WALL (      20 calls)

     Called by h_psi:
     h_psi:pot    :      9.15s CPU      9.26s WALL (     135 calls)
     h_psi:calbec :      1.98s CPU      2.00s WALL (     135 calls)
     vloc_psi     :      5.10s CPU      5.17s WALL (     135 calls)
     add_vuspsi   :      2.07s CPU      2.08s WALL (     135 calls)

     General routines
     calbec       :      1.98s CPU      2.00s WALL (     135 calls)
     fft          :      0.12s CPU      0.33s WALL (     228 calls)
     fftw         :      5.43s CPU      5.43s WALL (   20486 calls)
 
     Parallel routines
     fft_scatter  :      1.63s CPU      1.60s WALL (   20714 calls)
 
     PWSCF        :    32.80s CPU        36.32s WALL

 
   This run was terminated on:  10:32:43  12May2020            

=------------------------------------------------------------------------------=
   JOB DONE.
=------------------------------------------------------------------------------=
