
     Program PWSCF v.6.1 (svn rev. 13369) starts on 12May2020 at 10:28: 2 

     This program is part of the open-source Quantum ESPRESSO suite
     for quantum simulation of materials; please cite
         "P. Giannozzi et al., J. Phys.:Condens. Matter 21 395502 (2009);
          URL http://www.quantum-espresso.org", 
     in publications or presentations arising from this work. More details at
     http://www.quantum-espresso.org/quote

     Parallel version (MPI), running on    96 processors
     K-points division:     npool     =       6
     R & G space division:  proc/nbgrp/npool/nimage =      16
     Reading input from scf.in
Warning: card &IONS ignored
Warning: card / ignored

     Current dimensions of program PWSCF are:
     Max number of different atomic species (ntypx) = 10
     Max number of k-points (npk) =  40000
     Max angular momentum in pseudopotentials (lmaxx) =  3

     Subspace diagonalization in iterative solution of the eigenvalue problem:
     a serial algorithm will be used

 
     Parallelization info
     --------------------
     sticks:   dense  smooth     PW     G-vecs:    dense   smooth      PW
     Min         252     252     67                12125    12125    1669
     Max         254     254     68                12129    12129    1672
     Sum        4049    4049   1085               194039   194039   26745
 


     bravais-lattice index     =            1
     lattice parameter (alat)  =      13.4862  a.u.
     unit-cell volume          =    2452.8358 (a.u.)^3
     number of atoms/cell      =           63
     number of atomic types    =            2
     number of electrons       =       254.00
     number of Kohn-Sham states=          152
     kinetic-energy cutoff     =      70.0000  Ry
     charge density cutoff     =     280.0000  Ry
     convergence threshold     =      1.0E-06
     mixing beta               =       0.5000
     number of iterations used =            8  plain     mixing
     Exchange-correlation      = PBE ( 1  4  3  4 0 0)

     celldm(1)=  13.486197  celldm(2)=   0.000000  celldm(3)=   0.000000
     celldm(4)=   0.000000  celldm(5)=   0.000000  celldm(6)=   0.000000

     crystal axes: (cart. coord. in units of alat)
               a(1) = (   1.000000   0.000000   0.000000 )  
               a(2) = (   0.000000   1.000000   0.000000 )  
               a(3) = (   0.000000   0.000000   1.000000 )  

     reciprocal axes: (cart. coord. in units 2 pi/alat)
               b(1) = (  1.000000  0.000000  0.000000 )  
               b(2) = (  0.000000  1.000000  0.000000 )  
               b(3) = (  0.000000  0.000000  1.000000 )  


     PseudoPot. # 1 for C  read from file:
     /home/tjsmart/Pseudo/C_ONCV_PBE-1.0.upf
     MD5 check sum: 72b63e32b2fd29504de26a4901699f60
     Pseudo is Norm-conserving, Zval =  4.0
     Generated using ONCVPSP code by D. R. Hamann
     Using radial grid of 1248 points,  4 beta functions with: 
                l(1) =   0
                l(2) =   0
                l(3) =   1
                l(4) =   1

     PseudoPot. # 2 for N  read from file:
     /home/tjsmart/Pseudo/N_ONCV_PBE-1.0.upf
     MD5 check sum: 09890da6b2972017450f7114a6086fad
     Pseudo is Norm-conserving, Zval =  5.0
     Generated using ONCVPSP code by D. R. Hamann
     Using radial grid of 1058 points,  4 beta functions with: 
                l(1) =   0
                l(2) =   0
                l(3) =   1
                l(4) =   1

     atomic species   valence    mass     pseudopotential
        C              4.00    12.01110     C ( 1.00)
        N              5.00    14.00670     N ( 1.00)

     Starting magnetic structure 
     atomic species   magnetization
        C            0.500
        N            0.500

      6 Sym. Ops. (no inversion) found


                                    s                        frac. trans.

      isym =  1     identity                                     

 cryst.   s( 1) = (     1          0          0      )
                  (     0          1          0      )
                  (     0          0          1      )

 cart.    s( 1) = (  1.0000000  0.0000000  0.0000000 )
                  (  0.0000000  1.0000000  0.0000000 )
                  (  0.0000000  0.0000000  1.0000000 )


      isym =  2     120 deg rotation - cart. axis [-1,-1,-1]     

 cryst.   s( 2) = (     0          0          1      )
                  (     1          0          0      )
                  (     0          1          0      )

 cart.    s( 2) = (  0.0000000  1.0000000  0.0000000 )
                  (  0.0000000  0.0000000  1.0000000 )
                  (  1.0000000  0.0000000  0.0000000 )


      isym =  3     120 deg rotation - cart. axis [1,1,1]        

 cryst.   s( 3) = (     0          1          0      )
                  (     0          0          1      )
                  (     1          0          0      )

 cart.    s( 3) = (  0.0000000  0.0000000  1.0000000 )
                  (  1.0000000  0.0000000  0.0000000 )
                  (  0.0000000  1.0000000  0.0000000 )


      isym =  4     inv. 180 deg rotation - cart. axis [1,-1,0]  

 cryst.   s( 4) = (     0          1          0      )
                  (     1          0          0      )
                  (     0          0          1      )

 cart.    s( 4) = (  0.0000000  1.0000000  0.0000000 )
                  (  1.0000000  0.0000000  0.0000000 )
                  (  0.0000000  0.0000000  1.0000000 )


      isym =  5     inv. 180 deg rotation - cart. axis [-1,0,1]  

 cryst.   s( 5) = (     0          0          1      )
                  (     0          1          0      )
                  (     1          0          0      )

 cart.    s( 5) = (  0.0000000  0.0000000  1.0000000 )
                  (  0.0000000  1.0000000  0.0000000 )
                  (  1.0000000  0.0000000  0.0000000 )


      isym =  6     inv. 180 deg rotation - cart. axis [0,1,-1]  

 cryst.   s( 6) = (     1          0          0      )
                  (     0          0          1      )
                  (     0          1          0      )

 cart.    s( 6) = (  1.0000000  0.0000000  0.0000000 )
                  (  0.0000000  0.0000000  1.0000000 )
                  (  0.0000000  1.0000000  0.0000000 )


     point group C_3v (3m)  
     there are  3 classes
     the character table:

       E     2C3   3s_v 
A_1    1.00  1.00  1.00
A_2    1.00  1.00 -1.00
E      2.00 -1.00  0.00

     the symmetry operations in each class and the name of the first element:

     E        1
          identity                                               
     2C3      2    3
          120 deg rotation - cart. axis [-1,-1,-1]               
     3s_v     4    5    6
          inv. 180 deg rotation - cart. axis [1,-1,0]            

   Cartesian axes

     site n.     atom                  positions (alat units)
         1           C   tau(   1) = (   0.3757250   0.3757250   0.8737212  )
         2           C   tau(   2) = (   0.4999959   0.0001232   0.0001232  )
         3           C   tau(   3) = (   0.5000747   0.0000277   0.5000747  )
         4           C   tau(   4) = (   0.0001232   0.4999959   0.0001232  )
         5           C   tau(   5) = (   0.0000277   0.5000747   0.5000747  )
         6           C   tau(   6) = (  -0.0001087  -0.0001087  -0.0001087  )
         7           C   tau(   7) = (   0.0001232   0.0001232   0.4999959  )
         8           C   tau(   8) = (   0.2501588   0.2501588  -0.0013172  )
         9           C   tau(   9) = (   0.2504233   0.2504233   0.4943339  )
        10           C   tau(  10) = (   0.2504764   0.7489985   0.0010453  )
        11           C   tau(  11) = (   0.2530449   0.7475317   0.5015067  )
        12           C   tau(  12) = (   0.7489985   0.2504764   0.0010453  )
        13           C   tau(  13) = (   0.7475317   0.2530449   0.5015067  )
        14           C   tau(  14) = (   0.7496892   0.7496892  -0.0000346  )
        15           C   tau(  15) = (   0.5000747   0.5000747   0.0000277  )
        16           C   tau(  16) = (   0.7492917   0.7492917   0.4989062  )
        17           C   tau(  17) = (   0.5015067   0.2530449   0.7475317  )
        18           C   tau(  18) = (   0.5015067   0.7475317   0.2530449  )
        19           C   tau(  19) = (   0.4989062   0.7492917   0.7492917  )
        20           C   tau(  20) = (  -0.0013172   0.2501588   0.2501588  )
        21           C   tau(  21) = (   0.0010453   0.2504764   0.7489985  )
        22           C   tau(  22) = (   0.0010453   0.7489985   0.2504764  )
        23           C   tau(  23) = (  -0.0000346   0.7496892   0.7496892  )
        24           C   tau(  24) = (   0.2504233   0.4943339   0.2504233  )
        25           C   tau(  25) = (   0.2530449   0.5015067   0.7475317  )
        26           C   tau(  26) = (   0.2501588  -0.0013172   0.2501588  )
        27           C   tau(  27) = (   0.2504764   0.0010453   0.7489985  )
        28           C   tau(  28) = (   0.7475317   0.5015067   0.2530449  )
        29           C   tau(  29) = (   0.7492917   0.4989062   0.7492917  )
        30           C   tau(  30) = (   0.4943339   0.2504233   0.2504233  )
        31           C   tau(  31) = (   0.7489985   0.0010453   0.2504764  )
        32           C   tau(  32) = (   0.6247962   0.8746575   0.6247962  )
        33           C   tau(  33) = (   0.6342971   0.3687995   0.6342971  )
        34           C   tau(  34) = (   0.3759517   0.8761966   0.8761966  )
        35           C   tau(  35) = (   0.3757250   0.8737212   0.3757250  )
        36           C   tau(  36) = (   0.8761966   0.3759517   0.8761966  )
        37           C   tau(  37) = (   0.8737212   0.3757250   0.3757250  )
        38           C   tau(  38) = (   0.8747714   0.8747714   0.8747714  )
        39           C   tau(  39) = (   0.8761966   0.8761966   0.3759517  )
        40           C   tau(  40) = (   0.1253873   0.1253873   0.8741955  )
        41           C   tau(  41) = (   0.1236532   0.1236532   0.3748641  )
        42           C   tau(  42) = (   0.1245776   0.6246148   0.8757614  )
        43           C   tau(  43) = (   0.1272409   0.6227764   0.3762885  )
        44           C   tau(  44) = (   0.6246148   0.1245776   0.8757614  )
        45           C   tau(  45) = (   0.6227764   0.1272409   0.3762885  )
        46           C   tau(  46) = (   0.6246148   0.8757614   0.1245776  )
        47           C   tau(  47) = (   0.6247962   0.6247962   0.8746575  )
        48           C   tau(  48) = (   0.3748641   0.1236532   0.1236532  )
        49           C   tau(  49) = (   0.3762885   0.1272409   0.6227764  )
        50           C   tau(  50) = (   0.3762885   0.6227764   0.1272409  )
        51           C   tau(  51) = (   0.3687995   0.6342971   0.6342971  )
        52           C   tau(  52) = (   0.8741955   0.1253873   0.1253873  )
        53           C   tau(  53) = (   0.8757614   0.1245776   0.6246148  )
        54           C   tau(  54) = (   0.8757614   0.6246148   0.1245776  )
        55           C   tau(  55) = (   0.8746575   0.6247962   0.6247962  )
        56           C   tau(  56) = (   0.1236532   0.3748641   0.1236532  )
        57           C   tau(  57) = (   0.1272409   0.3762885   0.6227764  )
        58           C   tau(  58) = (   0.1253873   0.8741955   0.1253873  )
        59           C   tau(  59) = (   0.1245776   0.8757614   0.6246148  )
        60           C   tau(  60) = (   0.6227764   0.3762885   0.1272409  )
        61           C   tau(  61) = (   0.6342971   0.6342971   0.3687995  )
        62           C   tau(  62) = (   0.7496892  -0.0000346   0.7496892  )
        63           N   tau(  63) = (   0.3638772   0.3638772   0.3638772  )

   Crystallographic axes

     site n.     atom                  positions (cryst. coord.)
         1           C   tau(   1) = (  0.3757250  0.3757250  0.8737212  )
         2           C   tau(   2) = (  0.4999959  0.0001232  0.0001232  )
         3           C   tau(   3) = (  0.5000747  0.0000277  0.5000747  )
         4           C   tau(   4) = (  0.0001232  0.4999959  0.0001232  )
         5           C   tau(   5) = (  0.0000277  0.5000747  0.5000747  )
         6           C   tau(   6) = ( -0.0001087 -0.0001087 -0.0001087  )
         7           C   tau(   7) = (  0.0001232  0.0001232  0.4999959  )
         8           C   tau(   8) = (  0.2501588  0.2501588 -0.0013172  )
         9           C   tau(   9) = (  0.2504233  0.2504233  0.4943339  )
        10           C   tau(  10) = (  0.2504764  0.7489985  0.0010453  )
        11           C   tau(  11) = (  0.2530449  0.7475317  0.5015067  )
        12           C   tau(  12) = (  0.7489985  0.2504764  0.0010453  )
        13           C   tau(  13) = (  0.7475317  0.2530449  0.5015067  )
        14           C   tau(  14) = (  0.7496892  0.7496892 -0.0000346  )
        15           C   tau(  15) = (  0.5000747  0.5000747  0.0000277  )
        16           C   tau(  16) = (  0.7492917  0.7492917  0.4989062  )
        17           C   tau(  17) = (  0.5015067  0.2530449  0.7475317  )
        18           C   tau(  18) = (  0.5015067  0.7475317  0.2530449  )
        19           C   tau(  19) = (  0.4989062  0.7492917  0.7492917  )
        20           C   tau(  20) = ( -0.0013172  0.2501588  0.2501588  )
        21           C   tau(  21) = (  0.0010453  0.2504764  0.7489985  )
        22           C   tau(  22) = (  0.0010453  0.7489985  0.2504764  )
        23           C   tau(  23) = ( -0.0000346  0.7496892  0.7496892  )
        24           C   tau(  24) = (  0.2504233  0.4943339  0.2504233  )
        25           C   tau(  25) = (  0.2530449  0.5015067  0.7475317  )
        26           C   tau(  26) = (  0.2501588 -0.0013172  0.2501588  )
        27           C   tau(  27) = (  0.2504764  0.0010453  0.7489985  )
        28           C   tau(  28) = (  0.7475317  0.5015067  0.2530449  )
        29           C   tau(  29) = (  0.7492917  0.4989062  0.7492917  )
        30           C   tau(  30) = (  0.4943339  0.2504233  0.2504233  )
        31           C   tau(  31) = (  0.7489985  0.0010453  0.2504764  )
        32           C   tau(  32) = (  0.6247962  0.8746575  0.6247962  )
        33           C   tau(  33) = (  0.6342971  0.3687995  0.6342971  )
        34           C   tau(  34) = (  0.3759517  0.8761966  0.8761966  )
        35           C   tau(  35) = (  0.3757250  0.8737212  0.3757250  )
        36           C   tau(  36) = (  0.8761966  0.3759517  0.8761966  )
        37           C   tau(  37) = (  0.8737212  0.3757250  0.3757250  )
        38           C   tau(  38) = (  0.8747714  0.8747714  0.8747714  )
        39           C   tau(  39) = (  0.8761966  0.8761966  0.3759517  )
        40           C   tau(  40) = (  0.1253873  0.1253873  0.8741955  )
        41           C   tau(  41) = (  0.1236532  0.1236532  0.3748641  )
        42           C   tau(  42) = (  0.1245776  0.6246148  0.8757614  )
        43           C   tau(  43) = (  0.1272409  0.6227764  0.3762885  )
        44           C   tau(  44) = (  0.6246148  0.1245776  0.8757614  )
        45           C   tau(  45) = (  0.6227764  0.1272409  0.3762885  )
        46           C   tau(  46) = (  0.6246148  0.8757614  0.1245776  )
        47           C   tau(  47) = (  0.6247962  0.6247962  0.8746575  )
        48           C   tau(  48) = (  0.3748641  0.1236532  0.1236532  )
        49           C   tau(  49) = (  0.3762885  0.1272409  0.6227764  )
        50           C   tau(  50) = (  0.3762885  0.6227764  0.1272409  )
        51           C   tau(  51) = (  0.3687995  0.6342971  0.6342971  )
        52           C   tau(  52) = (  0.8741955  0.1253873  0.1253873  )
        53           C   tau(  53) = (  0.8757614  0.1245776  0.6246148  )
        54           C   tau(  54) = (  0.8757614  0.6246148  0.1245776  )
        55           C   tau(  55) = (  0.8746575  0.6247962  0.6247962  )
        56           C   tau(  56) = (  0.1236532  0.3748641  0.1236532  )
        57           C   tau(  57) = (  0.1272409  0.3762885  0.6227764  )
        58           C   tau(  58) = (  0.1253873  0.8741955  0.1253873  )
        59           C   tau(  59) = (  0.1245776  0.8757614  0.6246148  )
        60           C   tau(  60) = (  0.6227764  0.3762885  0.1272409  )
        61           C   tau(  61) = (  0.6342971  0.6342971  0.3687995  )
        62           C   tau(  62) = (  0.7496892 -0.0000346  0.7496892  )
        63           N   tau(  63) = (  0.3638772  0.3638772  0.3638772  )

     number of k points=     6
                       cart. coord. in units 2pi/alat
        k(    1) = (   0.0000000   0.0000000   0.0000000), wk =   0.0370370
        k(    2) = (   0.0000000   0.0000000   0.3333333), wk =   0.2222222
        k(    3) = (   0.0000000   0.3333333   0.3333333), wk =   0.2222222
        k(    4) = (   0.3333333   0.3333333   0.3333333), wk =   0.0740741
        k(    5) = (  -0.3333333   0.0000000   0.3333333), wk =   0.2222222
        k(    6) = (   0.3333333  -0.3333333   0.3333333), wk =   0.2222222

                       cryst. coord.
        k(    1) = (   0.0000000   0.0000000   0.0000000), wk =   0.0370370
        k(    2) = (   0.0000000   0.0000000   0.3333333), wk =   0.2222222
        k(    3) = (   0.0000000   0.3333333   0.3333333), wk =   0.2222222
        k(    4) = (   0.3333333   0.3333333   0.3333333), wk =   0.0740741
        k(    5) = (  -0.3333333   0.0000000   0.3333333), wk =   0.2222222
        k(    6) = (   0.3333333  -0.3333333   0.3333333), wk =   0.2222222

     Dense  grid:   194039 G-vectors     FFT dimensions: (  72,  72,  72)

     Occupations read from input 

      Spin-up

        1.0000   1.0000   1.0000   1.0000   1.0000   1.0000   1.0000   1.0000
        1.0000   1.0000   1.0000   1.0000   1.0000   1.0000   1.0000   1.0000
        1.0000   1.0000   1.0000   1.0000   1.0000   1.0000   1.0000   1.0000
        1.0000   1.0000   1.0000   1.0000   1.0000   1.0000   1.0000   1.0000
        1.0000   1.0000   1.0000   1.0000   1.0000   1.0000   1.0000   1.0000
        1.0000   1.0000   1.0000   1.0000   1.0000   1.0000   1.0000   1.0000
        1.0000   1.0000   1.0000   1.0000   1.0000   1.0000   1.0000   1.0000
        1.0000   1.0000   1.0000   1.0000   1.0000   1.0000   1.0000   1.0000
        1.0000   1.0000   1.0000   1.0000   1.0000   1.0000   1.0000   1.0000
        1.0000   1.0000   1.0000   1.0000   1.0000   1.0000   1.0000   1.0000
        1.0000   1.0000   1.0000   1.0000   1.0000   1.0000   1.0000   1.0000
        1.0000   1.0000   1.0000   1.0000   1.0000   1.0000   1.0000   1.0000
        1.0000   1.0000   1.0000   1.0000   1.0000   1.0000   1.0000   1.0000
        1.0000   1.0000   1.0000   1.0000   1.0000   1.0000   1.0000   1.0000
        1.0000   1.0000   1.0000   1.0000   1.0000   1.0000   1.0000   1.0000
        1.0000   1.0000   1.0000   1.0000   1.0000   1.0000   1.0000   1.0000
        0.0000   0.0000   0.0000   0.0000   0.0000   0.0000   0.0000   0.0000
        0.0000   0.0000   0.0000   0.0000   0.0000   0.0000   0.0000   0.0000
        0.0000   0.0000   0.0000   0.0000   0.0000   0.0000   0.0000   0.0000

      Spin-down

        1.0000   1.0000   1.0000   1.0000   1.0000   1.0000   1.0000   1.0000
        1.0000   1.0000   1.0000   1.0000   1.0000   1.0000   1.0000   1.0000
        1.0000   1.0000   1.0000   1.0000   1.0000   1.0000   1.0000   1.0000
        1.0000   1.0000   1.0000   1.0000   1.0000   1.0000   1.0000   1.0000
        1.0000   1.0000   1.0000   1.0000   1.0000   1.0000   1.0000   1.0000
        1.0000   1.0000   1.0000   1.0000   1.0000   1.0000   1.0000   1.0000
        1.0000   1.0000   1.0000   1.0000   1.0000   1.0000   1.0000   1.0000
        1.0000   1.0000   1.0000   1.0000   1.0000   1.0000   1.0000   1.0000
        1.0000   1.0000   1.0000   1.0000   1.0000   1.0000   1.0000   1.0000
        1.0000   1.0000   1.0000   1.0000   1.0000   1.0000   1.0000   1.0000
        1.0000   1.0000   1.0000   1.0000   1.0000   1.0000   1.0000   1.0000
        1.0000   1.0000   1.0000   1.0000   1.0000   1.0000   1.0000   1.0000
        1.0000   1.0000   1.0000   1.0000   1.0000   1.0000   1.0000   1.0000
        1.0000   1.0000   1.0000   1.0000   1.0000   1.0000   1.0000   1.0000
        1.0000   1.0000   1.0000   1.0000   1.0000   1.0000   1.0000   1.0000
        1.0000   1.0000   1.0000   1.0000   1.0000   0.0000   1.0000   0.0000
        0.0000   0.0000   0.0000   0.0000   0.0000   0.0000   0.0000   0.0000
        0.0000   0.0000   0.0000   0.0000   0.0000   0.0000   0.0000   0.0000
        0.0000   0.0000   0.0000   0.0000   0.0000   0.0000   0.0000   0.0000

     Estimated max dynamical RAM per process >      60.23MB

     Estimated total allocated dynamical RAM >    5782.56MB
     Generating pointlists ...
     new r_m :   0.0853 (alat units)  1.1504 (a.u.) for type    1
     new r_m :   0.0853 (alat units)  1.1504 (a.u.) for type    2

     Initial potential from superposition of free atoms

     starting charge  252.99722, renormalised to  254.00000
     Starting wfc are  252 randomized atomic wfcs

     total cpu time spent up to now is        3.7 secs

     per-process dynamical memory:    59.5 Mb

     Self-consistent Calculation

     iteration #  1     ecut=    70.00 Ry     beta=0.50
     Davidson diagonalization with overlap
     ethr =  1.00E-02,  avg # of iterations =  3.0

     total cpu time spent up to now is        6.0 secs

     total energy              =    -722.44010879 Ry
     Harris-Foulkes estimate   =    -717.54607826 Ry
     estimated scf accuracy    <       6.66302981 Ry

     total magnetization       =     2.00 Bohr mag/cell
     absolute magnetization    =     3.67 Bohr mag/cell

     iteration #  2     ecut=    70.00 Ry     beta=0.50
     Davidson diagonalization with overlap
     ethr =  2.62E-03,  avg # of iterations =  2.0

     total cpu time spent up to now is        7.4 secs

     total energy              =    -724.23315900 Ry
     Harris-Foulkes estimate   =    -722.83324491 Ry
     estimated scf accuracy    <       1.48912564 Ry

     total magnetization       =     2.00 Bohr mag/cell
     absolute magnetization    =     2.51 Bohr mag/cell

     iteration #  3     ecut=    70.00 Ry     beta=0.50
     Davidson diagonalization with overlap
     ethr =  5.86E-04,  avg # of iterations =  6.9

     total cpu time spent up to now is       10.6 secs

     total energy              =    -724.51855105 Ry
     Harris-Foulkes estimate   =    -724.56580878 Ry
     estimated scf accuracy    <       0.76466844 Ry

     total magnetization       =     2.00 Bohr mag/cell
     absolute magnetization    =     2.14 Bohr mag/cell

     iteration #  4     ecut=    70.00 Ry     beta=0.50
     Davidson diagonalization with overlap
     ethr =  3.01E-04,  avg # of iterations =  6.0

     total cpu time spent up to now is       13.4 secs

     total energy              =    -724.67274062 Ry
     Harris-Foulkes estimate   =    -724.66178727 Ry
     estimated scf accuracy    <       0.02933452 Ry

     total magnetization       =     2.00 Bohr mag/cell
     absolute magnetization    =     2.14 Bohr mag/cell

     iteration #  5     ecut=    70.00 Ry     beta=0.50
     Davidson diagonalization with overlap
     ethr =  1.15E-05,  avg # of iterations = 10.4

     total cpu time spent up to now is       18.5 secs

     total energy              =    -724.68139414 Ry
     Harris-Foulkes estimate   =    -724.68102117 Ry
     estimated scf accuracy    <       0.00651241 Ry

     total magnetization       =     2.00 Bohr mag/cell
     absolute magnetization    =     2.15 Bohr mag/cell

     iteration #  6     ecut=    70.00 Ry     beta=0.50
     Davidson diagonalization with overlap
     ethr =  2.56E-06,  avg # of iterations =  8.4

     total cpu time spent up to now is       23.0 secs

     total energy              =    -724.68269557 Ry
     Harris-Foulkes estimate   =    -724.68277791 Ry
     estimated scf accuracy    <       0.00067254 Ry

     total magnetization       =     2.00 Bohr mag/cell
     absolute magnetization    =     2.16 Bohr mag/cell

     iteration #  7     ecut=    70.00 Ry     beta=0.50
     Davidson diagonalization with overlap
     ethr =  2.65E-07,  avg # of iterations =  3.4

     total cpu time spent up to now is       25.0 secs

     total energy              =    -724.68291096 Ry
     Harris-Foulkes estimate   =    -724.68288329 Ry
     estimated scf accuracy    <       0.00008872 Ry

     total magnetization       =     2.00 Bohr mag/cell
     absolute magnetization    =     2.17 Bohr mag/cell

     iteration #  8     ecut=    70.00 Ry     beta=0.50
     Davidson diagonalization with overlap
     ethr =  3.49E-08,  avg # of iterations =  3.4

     total cpu time spent up to now is       27.2 secs

     total energy              =    -724.68295762 Ry
     Harris-Foulkes estimate   =    -724.68293958 Ry
     estimated scf accuracy    <       0.00001834 Ry

     total magnetization       =     2.00 Bohr mag/cell
     absolute magnetization    =     2.18 Bohr mag/cell

     iteration #  9     ecut=    70.00 Ry     beta=0.50
     Davidson diagonalization with overlap
     ethr =  7.22E-09,  avg # of iterations =  3.9

     total cpu time spent up to now is       29.3 secs

     total energy              =    -724.68297101 Ry
     Harris-Foulkes estimate   =    -724.68296170 Ry
     estimated scf accuracy    <       0.00000521 Ry

     total magnetization       =     2.00 Bohr mag/cell
     absolute magnetization    =     2.19 Bohr mag/cell

     iteration # 10     ecut=    70.00 Ry     beta=0.50
     Davidson diagonalization with overlap
     ethr =  2.05E-09,  avg # of iterations =  4.7

     total cpu time spent up to now is       32.1 secs

     total energy              =    -724.68297530 Ry
     Harris-Foulkes estimate   =    -724.68297424 Ry
     estimated scf accuracy    <       0.00000101 Ry

     total magnetization       =     2.00 Bohr mag/cell
     absolute magnetization    =     2.19 Bohr mag/cell

     iteration # 11     ecut=    70.00 Ry     beta=0.50
     Davidson diagonalization with overlap
     ethr =  3.97E-10,  avg # of iterations =  4.5
 
     Magnetic moment per site:
     atom:    1    charge:    1.8181    magn:    0.0067    constr:    0.0000
     atom:    2    charge:    1.8328    magn:    0.0079    constr:    0.0000
     atom:    3    charge:    1.8223    magn:   -0.0013    constr:    0.0000
     atom:    4    charge:    1.8328    magn:    0.0079    constr:    0.0000
     atom:    5    charge:    1.8223    magn:   -0.0013    constr:    0.0000
     atom:    6    charge:    1.8119    magn:   -0.0000    constr:    0.0000
     atom:    7    charge:    1.8328    magn:    0.0079    constr:    0.0000
     atom:    8    charge:    1.8168    magn:   -0.0008    constr:    0.0000
     atom:    9    charge:    1.7990    magn:    0.0001    constr:    0.0000
     atom:   10    charge:    1.8103    magn:   -0.0014    constr:    0.0000
     atom:   11    charge:    1.8201    magn:   -0.0025    constr:    0.0000
     atom:   12    charge:    1.8103    magn:   -0.0014    constr:    0.0000
     atom:   13    charge:    1.8201    magn:   -0.0025    constr:    0.0000
     atom:   14    charge:    1.8165    magn:   -0.0015    constr:    0.0000
     atom:   15    charge:    1.8223    magn:   -0.0013    constr:    0.0000
     atom:   16    charge:    1.8243    magn:    0.0009    constr:    0.0000
     atom:   17    charge:    1.8201    magn:   -0.0025    constr:    0.0000
     atom:   18    charge:    1.8201    magn:   -0.0025    constr:    0.0000
     atom:   19    charge:    1.8243    magn:    0.0009    constr:    0.0000
     atom:   20    charge:    1.8168    magn:   -0.0008    constr:    0.0000
     atom:   21    charge:    1.8103    magn:   -0.0014    constr:    0.0000
     atom:   22    charge:    1.8103    magn:   -0.0014    constr:    0.0000
     atom:   23    charge:    1.8165    magn:   -0.0015    constr:    0.0000
     atom:   24    charge:    1.7990    magn:    0.0001    constr:    0.0000
     atom:   25    charge:    1.8201    magn:   -0.0025    constr:    0.0000
     atom:   26    charge:    1.8168    magn:   -0.0008    constr:    0.0000
     atom:   27    charge:    1.8103    magn:   -0.0014    constr:    0.0000
     atom:   28    charge:    1.8201    magn:   -0.0025    constr:    0.0000
     atom:   29    charge:    1.8243    magn:    0.0009    constr:    0.0000
     atom:   30    charge:    1.7990    magn:    0.0001    constr:    0.0000
     atom:   31    charge:    1.8103    magn:   -0.0014    constr:    0.0000
     atom:   32    charge:    1.8164    magn:    0.0060    constr:    0.0000
     atom:   33    charge:    1.8378    magn:    0.1998    constr:    0.0000
     atom:   34    charge:    1.8153    magn:    0.0165    constr:    0.0000
     atom:   35    charge:    1.8181    magn:    0.0067    constr:    0.0000
     atom:   36    charge:    1.8153    magn:    0.0165    constr:    0.0000
     atom:   37    charge:    1.8181    magn:    0.0067    constr:    0.0000
     atom:   38    charge:    1.8174    magn:    0.0051    constr:    0.0000
     atom:   39    charge:    1.8153    magn:    0.0165    constr:    0.0000
     atom:   40    charge:    1.8194    magn:    0.0040    constr:    0.0000
     atom:   41    charge:    1.8262    magn:    0.0096    constr:    0.0000
     atom:   42    charge:    1.8149    magn:    0.0172    constr:    0.0000
     atom:   43    charge:    1.8125    magn:    0.0046    constr:    0.0000
     atom:   44    charge:    1.8149    magn:    0.0172    constr:    0.0000
     atom:   45    charge:    1.8125    magn:    0.0046    constr:    0.0000
     atom:   46    charge:    1.8149    magn:    0.0172    constr:    0.0000
     atom:   47    charge:    1.8164    magn:    0.0060    constr:    0.0000
     atom:   48    charge:    1.8262    magn:    0.0096    constr:    0.0000
     atom:   49    charge:    1.8125    magn:    0.0046    constr:    0.0000
     atom:   50    charge:    1.8125    magn:    0.0046    constr:    0.0000
     atom:   51    charge:    1.8378    magn:    0.1998    constr:    0.0000
     atom:   52    charge:    1.8194    magn:    0.0040    constr:    0.0000
     atom:   53    charge:    1.8149    magn:    0.0172    constr:    0.0000
     atom:   54    charge:    1.8149    magn:    0.0172    constr:    0.0000
     atom:   55    charge:    1.8164    magn:    0.0060    constr:    0.0000
     atom:   56    charge:    1.8262    magn:    0.0096    constr:    0.0000
     atom:   57    charge:    1.8125    magn:    0.0046    constr:    0.0000
     atom:   58    charge:    1.8194    magn:    0.0040    constr:    0.0000
     atom:   59    charge:    1.8149    magn:    0.0172    constr:    0.0000
     atom:   60    charge:    1.8125    magn:    0.0046    constr:    0.0000
     atom:   61    charge:    1.8378    magn:    0.1998    constr:    0.0000
     atom:   62    charge:    1.8165    magn:   -0.0015    constr:    0.0000
     atom:   63    charge:    2.8863    magn:    0.1296    constr:    0.0000

     total cpu time spent up to now is       34.7 secs

     End of self-consistent calculation

 ------ SPIN UP ------------


          k = 0.0000 0.0000 0.0000 ( 24207 PWs)   bands (ev):

    -8.6597  -7.2680  -6.2840  -6.2840  -6.1467  -6.1467  -5.9068  -5.0437
    -4.1562  -4.1562  -4.1332  -4.1332  -4.0186  -4.0186  -3.9649  -3.9608
    -3.8539  -3.8539  -3.3750  -2.9896  -2.6759  -2.6759  -2.1071  -0.4222
    -0.4222  -0.3640  -0.3387  -0.1650   0.1422   0.1422   0.2621   0.2621
     0.3481   0.5762   0.7721   0.7721   0.9722   0.9722   1.0083   1.0084
     1.0084   1.0891   1.3288   1.3288   2.9901   3.7340   3.7340   3.9707
     4.1930   4.2131   4.2131   4.2185   4.2602   4.2602   4.4078   4.4078
     4.4483   4.4483   4.5909   4.6195   4.6195   4.6234   4.6636   4.7231
     4.7231   4.8533   4.9193   4.9193   5.0058   5.1938   5.1938   5.2334
     5.3190   5.3190   5.3690   5.4164   5.4164   5.9816   5.9816   5.9985
     6.5631   6.5631   6.7124   6.8892   6.9977   6.9977   7.4301   8.2255
     8.2255   8.3484   8.4425   8.4425   8.5984   8.5984   8.7573   8.7792
     8.7792   8.7820   8.8504   8.8504   8.8914   9.2292   9.2298   9.2298
     9.6339   9.6339   9.8559   9.8559   9.8612   9.9013   9.9346   9.9346
     9.9456   9.9472   9.9601   9.9601  10.0997  10.0997  10.2431  10.2431
    10.3201  10.5230  12.0695  12.4011  12.4011  13.4622  14.9579  14.9579
    17.2351  17.3153  17.3153  17.4893  17.5057  17.5057  17.8135  17.8675
    17.8675  17.9563  17.9563  18.3030  18.8516  18.8516  18.9124  20.5372
    20.7379  20.7379  20.8005  20.8687  20.8688  20.9553  20.9555  20.9894

     occupation numbers 
     1.0000   1.0000   1.0000   1.0000   1.0000   1.0000   1.0000   1.0000
     1.0000   1.0000   1.0000   1.0000   1.0000   1.0000   1.0000   1.0000
     1.0000   1.0000   1.0000   1.0000   1.0000   1.0000   1.0000   1.0000
     1.0000   1.0000   1.0000   1.0000   1.0000   1.0000   1.0000   1.0000
     1.0000   1.0000   1.0000   1.0000   1.0000   1.0000   1.0000   1.0000
     1.0000   1.0000   1.0000   1.0000   1.0000   1.0000   1.0000   1.0000
     1.0000   1.0000   1.0000   1.0000   1.0000   1.0000   1.0000   1.0000
     1.0000   1.0000   1.0000   1.0000   1.0000   1.0000   1.0000   1.0000
     1.0000   1.0000   1.0000   1.0000   1.0000   1.0000   1.0000   1.0000
     1.0000   1.0000   1.0000   1.0000   1.0000   1.0000   1.0000   1.0000
     1.0000   1.0000   1.0000   1.0000   1.0000   1.0000   1.0000   1.0000
     1.0000   1.0000   1.0000   1.0000   1.0000   1.0000   1.0000   1.0000
     1.0000   1.0000   1.0000   1.0000   1.0000   1.0000   1.0000   1.0000
     1.0000   1.0000   1.0000   1.0000   1.0000   1.0000   1.0000   1.0000
     1.0000   1.0000   1.0000   1.0000   1.0000   1.0000   1.0000   1.0000
     1.0000   1.0000   1.0000   1.0000   1.0000   1.0000   1.0000   1.0000
     0.0000   0.0000   0.0000   0.0000   0.0000   0.0000   0.0000   0.0000
     0.0000   0.0000   0.0000   0.0000   0.0000   0.0000   0.0000   0.0000
     0.0000   0.0000   0.0000   0.0000   0.0000   0.0000   0.0000   0.0000

          k = 0.0000 0.0000 0.3333 ( 24280 PWs)   bands (ev):

    -8.4606  -7.6494  -6.7688  -6.0415  -5.9084  -5.8285  -5.5215  -5.2923
    -5.1451  -5.0027  -4.5428  -4.1588  -3.8144  -3.8052  -3.6824  -3.4544
    -3.2018  -3.1480  -2.9320  -2.6227  -2.5025  -2.3617  -2.3338  -1.7994
    -0.8952  -0.6970  -0.5623  -0.3599   0.1223   0.1930   0.3633   0.4120
     0.4775   0.5554   0.5627   0.6622   0.7204   0.7364   1.0001   1.4546
     1.9553   2.0004   2.1709   2.1834   2.4080   2.4736   2.4745   2.7457
     2.9315   2.9916   3.1520   3.1827   3.8423   3.9139   4.0504   4.0692
     4.2926   4.3283   4.4772   4.5340   5.0074   5.0670   5.1091   5.2029
     5.2060   5.5543   5.5946   5.6994   5.7661   6.0284   6.0783   6.1587
     6.1984   6.3093   6.3688   6.4647   6.5112   6.5754   6.6149   6.7298
     6.7759   6.8863   6.9103   6.9340   7.1411   7.1484   7.1794   7.2766
     7.3688   7.4766   7.6627   7.7616   7.8149   8.0658   8.1121   8.2801
     8.3194   8.4511   8.6145   8.7050   8.7654   9.0510   9.1819   9.3313
     9.3608   9.6072   9.6391   9.7032   9.8153   9.9146   9.9320   9.9435
     9.9583  10.0537  10.0684  10.1228  10.2136  10.2566  10.2662  10.3522
    10.3865  11.0206  11.6643  11.6977  11.9308  13.1178  14.6418  14.8018
    17.1506  17.2932  17.9406  18.2645  18.3289  18.4853  18.5001  18.5868
    18.8090  18.8247  18.9592  19.0620  19.1760  19.7926  19.8399  20.4167
    20.6311  20.6512  20.7737  20.7914  20.8208  20.8501  20.9018  20.9327

     occupation numbers 
     1.0000   1.0000   1.0000   1.0000   1.0000   1.0000   1.0000   1.0000
     1.0000   1.0000   1.0000   1.0000   1.0000   1.0000   1.0000   1.0000
     1.0000   1.0000   1.0000   1.0000   1.0000   1.0000   1.0000   1.0000
     1.0000   1.0000   1.0000   1.0000   1.0000   1.0000   1.0000   1.0000
     1.0000   1.0000   1.0000   1.0000   1.0000   1.0000   1.0000   1.0000
     1.0000   1.0000   1.0000   1.0000   1.0000   1.0000   1.0000   1.0000
     1.0000   1.0000   1.0000   1.0000   1.0000   1.0000   1.0000   1.0000
     1.0000   1.0000   1.0000   1.0000   1.0000   1.0000   1.0000   1.0000
     1.0000   1.0000   1.0000   1.0000   1.0000   1.0000   1.0000   1.0000
     1.0000   1.0000   1.0000   1.0000   1.0000   1.0000   1.0000   1.0000
     1.0000   1.0000   1.0000   1.0000   1.0000   1.0000   1.0000   1.0000
     1.0000   1.0000   1.0000   1.0000   1.0000   1.0000   1.0000   1.0000
     1.0000   1.0000   1.0000   1.0000   1.0000   1.0000   1.0000   1.0000
     1.0000   1.0000   1.0000   1.0000   1.0000   1.0000   1.0000   1.0000
     1.0000   1.0000   1.0000   1.0000   1.0000   1.0000   1.0000   1.0000
     1.0000   1.0000   1.0000   1.0000   1.0000   1.0000   1.0000   1.0000
     0.0000   0.0000   0.0000   0.0000   0.0000   0.0000   0.0000   0.0000
     0.0000   0.0000   0.0000   0.0000   0.0000   0.0000   0.0000   0.0000
     0.0000   0.0000   0.0000   0.0000   0.0000   0.0000   0.0000   0.0000

          k = 0.0000 0.3333 0.3333 ( 24236 PWs)   bands (ev):

    -8.2894  -7.5027  -7.2202  -6.6292  -6.0239  -5.6706  -5.3772  -5.0086
    -4.9794  -4.8614  -4.5148  -4.2486  -4.2188  -3.9346  -3.5706  -3.5256
    -2.8273  -2.3846  -2.3478  -2.3132  -2.1927  -2.1892  -2.0409  -1.8854
    -1.4766  -1.3319  -1.1012  -0.9138  -0.5619  -0.0748   0.0493   0.1351
     0.1669   0.4625   0.6691   1.1753   1.1893   1.3284   1.3619   1.3928
     1.4248   1.4714   1.9431   2.0516   2.1188   2.3829   2.7134   2.8087
     2.9572   3.4694   3.6296   3.6370   3.7587   3.8159   3.9602   4.0432
     4.1274   4.5290   4.6323   4.7850   4.9997   5.0458   5.1398   5.2932
     5.3060   5.5797   5.6257   5.6747   5.7324   5.9020   5.9986   6.0663
     6.1491   6.2386   6.2920   6.4702   6.5370   6.5907   6.6571   6.8324
     6.9272   6.9556   7.0025   7.0654   7.2192   7.2666   7.4777   7.6611
     7.9234   7.9337   8.0536   8.0609   8.1218   8.2351   8.2697   8.3073
     8.3698   8.4149   8.5208   8.6439   8.6693   8.7086   8.8399   8.8904
     9.1008   9.1786   9.2373   9.3065   9.4648   9.4662   9.5441   9.6491
     9.7169   9.7747   9.9107  10.0395  10.0673  10.1489  10.3650  10.6464
    10.9767  11.2026  11.5523  11.5596  12.2088  12.8831  14.5627  14.8845
    18.0180  18.1664  18.1949  18.2989  18.3502  18.7927  18.8537  18.9688
    19.1631  19.2026  19.4342  19.4816  19.6819  19.8032  19.9570  19.9912
    20.1762  20.4118  20.4684  20.4928  20.5535  20.5838  20.6103  20.6282

     occupation numbers 
     1.0000   1.0000   1.0000   1.0000   1.0000   1.0000   1.0000   1.0000
     1.0000   1.0000   1.0000   1.0000   1.0000   1.0000   1.0000   1.0000
     1.0000   1.0000   1.0000   1.0000   1.0000   1.0000   1.0000   1.0000
     1.0000   1.0000   1.0000   1.0000   1.0000   1.0000   1.0000   1.0000
     1.0000   1.0000   1.0000   1.0000   1.0000   1.0000   1.0000   1.0000
     1.0000   1.0000   1.0000   1.0000   1.0000   1.0000   1.0000   1.0000
     1.0000   1.0000   1.0000   1.0000   1.0000   1.0000   1.0000   1.0000
     1.0000   1.0000   1.0000   1.0000   1.0000   1.0000   1.0000   1.0000
     1.0000   1.0000   1.0000   1.0000   1.0000   1.0000   1.0000   1.0000
     1.0000   1.0000   1.0000   1.0000   1.0000   1.0000   1.0000   1.0000
     1.0000   1.0000   1.0000   1.0000   1.0000   1.0000   1.0000   1.0000
     1.0000   1.0000   1.0000   1.0000   1.0000   1.0000   1.0000   1.0000
     1.0000   1.0000   1.0000   1.0000   1.0000   1.0000   1.0000   1.0000
     1.0000   1.0000   1.0000   1.0000   1.0000   1.0000   1.0000   1.0000
     1.0000   1.0000   1.0000   1.0000   1.0000   1.0000   1.0000   1.0000
     1.0000   1.0000   1.0000   1.0000   1.0000   1.0000   1.0000   1.0000
     0.0000   0.0000   0.0000   0.0000   0.0000   0.0000   0.0000   0.0000
     0.0000   0.0000   0.0000   0.0000   0.0000   0.0000   0.0000   0.0000
     0.0000   0.0000   0.0000   0.0000   0.0000   0.0000   0.0000   0.0000

          k = 0.3333 0.3333 0.3333 ( 24303 PWs)   bands (ev):

    -8.1492  -7.3284  -6.9733  -6.9733  -6.3546  -6.2106  -6.2106  -5.4746
    -4.3011  -4.0282  -4.0282  -3.5870  -3.3892  -3.3892  -3.3617  -3.3617
    -3.2620  -2.9105  -2.6628  -2.6628  -1.9551  -1.9353  -1.9353  -1.5458
    -1.4619  -1.4619  -1.3909  -1.3909  -1.2918  -1.2068  -1.2068   0.0367
     0.8383   0.8383   0.9325   0.9679   0.9679   1.2637   1.8217   1.8217
     1.8676   1.8872   1.9863   1.9863   2.5536   2.5536   2.5872   2.7292
     2.7431   2.7431   3.1289   3.1289   3.5229   4.0580   4.2949   4.2949
     4.7830   4.8601   4.8601   4.9785   5.0864   5.0864   5.1338   5.2936
     5.2936   5.3861   5.4859   5.4859   5.5309   5.5309   5.5735   6.3338
     6.6484   6.6484   6.9656   6.9746   7.0182   7.0182   7.1001   7.1001
     7.2035   7.2035   7.2448   7.2553   7.2553   7.2643   7.3716   7.3716
     7.4024   7.4750   7.7241   7.7241   7.9075   7.9075   7.9606   8.0220
     8.1938   8.1938   8.2883   8.2883   8.3147   8.4593   8.4593   8.4633
     8.6842   8.6842   8.7356   9.0871   9.0964   9.5288   9.5288   9.7671
     9.7671  10.4621  10.4778  10.4778  10.5392  10.9503  10.9503  11.0724
    11.2721  11.2721  11.3311  11.6490  11.6490  12.7742  14.8638  14.8638
    18.0480  18.2178  18.2178  18.4548  18.6263  18.6263  19.2110  19.3593
    19.3593  19.5480  19.5480  19.5817  19.6243  19.6243  19.6762  19.7390
    19.7390  19.8592  19.9117  19.9117  19.9924  19.9925  20.0337  20.1723

     occupation numbers 
     1.0000   1.0000   1.0000   1.0000   1.0000   1.0000   1.0000   1.0000
     1.0000   1.0000   1.0000   1.0000   1.0000   1.0000   1.0000   1.0000
     1.0000   1.0000   1.0000   1.0000   1.0000   1.0000   1.0000   1.0000
     1.0000   1.0000   1.0000   1.0000   1.0000   1.0000   1.0000   1.0000
     1.0000   1.0000   1.0000   1.0000   1.0000   1.0000   1.0000   1.0000
     1.0000   1.0000   1.0000   1.0000   1.0000   1.0000   1.0000   1.0000
     1.0000   1.0000   1.0000   1.0000   1.0000   1.0000   1.0000   1.0000
     1.0000   1.0000   1.0000   1.0000   1.0000   1.0000   1.0000   1.0000
     1.0000   1.0000   1.0000   1.0000   1.0000   1.0000   1.0000   1.0000
     1.0000   1.0000   1.0000   1.0000   1.0000   1.0000   1.0000   1.0000
     1.0000   1.0000   1.0000   1.0000   1.0000   1.0000   1.0000   1.0000
     1.0000   1.0000   1.0000   1.0000   1.0000   1.0000   1.0000   1.0000
     1.0000   1.0000   1.0000   1.0000   1.0000   1.0000   1.0000   1.0000
     1.0000   1.0000   1.0000   1.0000   1.0000   1.0000   1.0000   1.0000
     1.0000   1.0000   1.0000   1.0000   1.0000   1.0000   1.0000   1.0000
     1.0000   1.0000   1.0000   1.0000   1.0000   1.0000   1.0000   1.0000
     0.0000   0.0000   0.0000   0.0000   0.0000   0.0000   0.0000   0.0000
     0.0000   0.0000   0.0000   0.0000   0.0000   0.0000   0.0000   0.0000
     0.0000   0.0000   0.0000   0.0000   0.0000   0.0000   0.0000   0.0000

          k =-0.3333 0.0000 0.3333 ( 24236 PWs)   bands (ev):

    -8.2771  -7.6002  -7.1013  -6.6196  -6.0769  -5.6782  -5.3953  -5.0500
    -4.9283  -4.7469  -4.5371  -4.3219  -4.2260  -4.0479  -3.5982  -3.3354
    -2.8081  -2.4387  -2.3800  -2.2772  -2.2089  -2.1539  -2.0941  -1.6761
    -1.6258  -1.3186  -1.1144  -1.0076  -0.5885  -0.0359   0.0556   0.1075
     0.2839   0.4934   0.8833   1.0163   1.1667   1.2052   1.2390   1.3797
     1.4898   1.5831   1.8484   1.8761   2.1282   2.5836   2.6473   2.8677
     2.9571   3.4479   3.6186   3.7031   3.7497   3.9100   4.0047   4.1263
     4.1654   4.3807   4.5402   4.7818   4.9528   4.9796   5.1652   5.2455
     5.4050   5.5496   5.6208   5.6900   5.7866   5.9894   6.0706   6.1258
     6.1734   6.2332   6.2788   6.3928   6.4515   6.6150   6.6305   6.7890
     6.8825   6.9616   7.0203   7.0934   7.2236   7.3610   7.4826   7.6408
     7.8167   7.8613   7.9434   8.0772   8.1726   8.2079   8.2732   8.2774
     8.3622   8.4356   8.5500   8.5819   8.7411   8.7586   8.8987   8.9583
     9.0666   9.1286   9.2244   9.3203   9.4251   9.4859   9.5221   9.6654
     9.7191   9.7605   9.9497  10.0369  10.0788  10.1004  10.5013  10.7294
    10.8875  11.1114  11.4476  11.5740  12.1841  13.1902  14.4856  14.7675
    18.0077  18.1777  18.2547  18.3054  18.3494  18.7889  18.9170  19.0865
    19.0987  19.2615  19.3216  19.4769  19.6863  19.8198  19.8649  20.0001
    20.2230  20.3304  20.3977  20.5055  20.5342  20.5833  20.6386  20.6790

     occupation numbers 
     1.0000   1.0000   1.0000   1.0000   1.0000   1.0000   1.0000   1.0000
     1.0000   1.0000   1.0000   1.0000   1.0000   1.0000   1.0000   1.0000
     1.0000   1.0000   1.0000   1.0000   1.0000   1.0000   1.0000   1.0000
     1.0000   1.0000   1.0000   1.0000   1.0000   1.0000   1.0000   1.0000
     1.0000   1.0000   1.0000   1.0000   1.0000   1.0000   1.0000   1.0000
     1.0000   1.0000   1.0000   1.0000   1.0000   1.0000   1.0000   1.0000
     1.0000   1.0000   1.0000   1.0000   1.0000   1.0000   1.0000   1.0000
     1.0000   1.0000   1.0000   1.0000   1.0000   1.0000   1.0000   1.0000
     1.0000   1.0000   1.0000   1.0000   1.0000   1.0000   1.0000   1.0000
     1.0000   1.0000   1.0000   1.0000   1.0000   1.0000   1.0000   1.0000
     1.0000   1.0000   1.0000   1.0000   1.0000   1.0000   1.0000   1.0000
     1.0000   1.0000   1.0000   1.0000   1.0000   1.0000   1.0000   1.0000
     1.0000   1.0000   1.0000   1.0000   1.0000   1.0000   1.0000   1.0000
     1.0000   1.0000   1.0000   1.0000   1.0000   1.0000   1.0000   1.0000
     1.0000   1.0000   1.0000   1.0000   1.0000   1.0000   1.0000   1.0000
     1.0000   1.0000   1.0000   1.0000   1.0000   1.0000   1.0000   1.0000
     0.0000   0.0000   0.0000   0.0000   0.0000   0.0000   0.0000   0.0000
     0.0000   0.0000   0.0000   0.0000   0.0000   0.0000   0.0000   0.0000
     0.0000   0.0000   0.0000   0.0000   0.0000   0.0000   0.0000   0.0000

          k = 0.3333-0.3333 0.3333 ( 24303 PWs)   bands (ev):

    -8.1296  -7.4462  -6.9740  -6.8284  -6.4979  -6.2088  -5.9916  -5.5240
    -4.6123  -4.0329  -3.9472  -3.7191  -3.4295  -3.3719  -3.3296  -3.1866
    -3.0763  -2.8943  -2.6932  -2.4359  -2.1045  -1.9019  -1.8617  -1.7299
    -1.4981  -1.4815  -1.4046  -1.3515  -1.3457  -1.2496  -1.1435  -0.1121
     0.7106   0.8894   0.9458   0.9699   1.0516   1.4013   1.6872   1.7607
     1.8609   1.9228   2.0473   2.2318   2.5502   2.5873   2.6822   2.7121
     2.7343   2.7764   2.8998   3.1741   3.4743   3.9468   4.2089   4.3224
     4.7416   4.7419   4.8398   5.0002   5.0017   5.0698   5.1838   5.2556
     5.2783   5.4297   5.4406   5.5126   5.6529   5.7760   5.8350   6.4014
     6.5824   6.6926   6.9055   6.9163   6.9693   7.0305   7.0788   7.0884
     7.1618   7.1918   7.2400   7.2594   7.2842   7.3122   7.3444   7.3582
     7.3945   7.4382   7.7219   7.7417   7.8035   7.9251   7.9513   7.9573
     8.1306   8.1645   8.2782   8.2855   8.3821   8.3909   8.4157   8.5231
     8.6897   8.7430   8.9381   8.9873   9.0856   9.5045   9.5826   9.6012
     9.8837  10.3823  10.4241  10.5357  10.5393  10.8618  10.9270  11.1153
    11.2241  11.2471  11.3145  11.7018  11.7452  13.1619  14.5548  14.8508
    18.0669  18.2508  18.3174  18.5175  18.6505  18.7092  19.1329  19.3639
    19.4176  19.4856  19.5157  19.5520  19.5997  19.6238  19.6461  19.7251
    19.7402  19.7819  19.8984  19.9086  19.9917  19.9925  20.0381  20.1498

     occupation numbers 
     1.0000   1.0000   1.0000   1.0000   1.0000   1.0000   1.0000   1.0000
     1.0000   1.0000   1.0000   1.0000   1.0000   1.0000   1.0000   1.0000
     1.0000   1.0000   1.0000   1.0000   1.0000   1.0000   1.0000   1.0000
     1.0000   1.0000   1.0000   1.0000   1.0000   1.0000   1.0000   1.0000
     1.0000   1.0000   1.0000   1.0000   1.0000   1.0000   1.0000   1.0000
     1.0000   1.0000   1.0000   1.0000   1.0000   1.0000   1.0000   1.0000
     1.0000   1.0000   1.0000   1.0000   1.0000   1.0000   1.0000   1.0000
     1.0000   1.0000   1.0000   1.0000   1.0000   1.0000   1.0000   1.0000
     1.0000   1.0000   1.0000   1.0000   1.0000   1.0000   1.0000   1.0000
     1.0000   1.0000   1.0000   1.0000   1.0000   1.0000   1.0000   1.0000
     1.0000   1.0000   1.0000   1.0000   1.0000   1.0000   1.0000   1.0000
     1.0000   1.0000   1.0000   1.0000   1.0000   1.0000   1.0000   1.0000
     1.0000   1.0000   1.0000   1.0000   1.0000   1.0000   1.0000   1.0000
     1.0000   1.0000   1.0000   1.0000   1.0000   1.0000   1.0000   1.0000
     1.0000   1.0000   1.0000   1.0000   1.0000   1.0000   1.0000   1.0000
     1.0000   1.0000   1.0000   1.0000   1.0000   1.0000   1.0000   1.0000
     0.0000   0.0000   0.0000   0.0000   0.0000   0.0000   0.0000   0.0000
     0.0000   0.0000   0.0000   0.0000   0.0000   0.0000   0.0000   0.0000
     0.0000   0.0000   0.0000   0.0000   0.0000   0.0000   0.0000   0.0000

 ------ SPIN DOWN ----------


          k = 0.0000 0.0000 0.0000 ( 24207 PWs)   bands (ev):

    -8.6172  -7.1872  -6.2664  -6.2664  -6.1136  -6.1136  -5.8693  -4.9985
    -4.1378  -4.1378  -4.1176  -4.1176  -3.9748  -3.9748  -3.9454  -3.9447
    -3.8104  -3.8104  -3.3305  -2.9609  -2.6283  -2.6283  -1.9890  -0.4043
    -0.4043  -0.3430  -0.3009  -0.0945   0.1607   0.1607   0.2941   0.2941
     0.3696   0.6131   0.7873   0.7873   0.9979   0.9979   1.0245   1.0245
     1.0314   1.1063   1.4675   1.4675   3.1044   3.7696   3.7696   4.0044
     4.2337   4.2351   4.2359   4.2359   4.2854   4.2854   4.4368   4.4368
     4.4837   4.4837   4.6073   4.6383   4.6383   4.6525   4.6777   4.7574
     4.7574   4.8778   4.9467   4.9467   5.0919   5.2274   5.2274   5.2665
     5.3307   5.3307   5.3783   5.4617   5.4617   6.0337   6.0337   6.0545
     6.5923   6.5923   6.7390   6.9656   7.0741   7.0741   7.6103   8.2655
     8.2655   8.3878   8.4711   8.4711   8.6310   8.6310   8.7949   8.7949
     8.8020   8.8273   8.8933   8.8933   8.9078   9.2603   9.2603   9.2643
     9.6663   9.6663   9.8700   9.8724   9.8724   9.9154   9.9597   9.9597
     9.9653   9.9774   9.9835   9.9835  10.1338  10.1338  10.2937  10.2937
    10.3677  11.0371  12.4451  12.5150  12.5150  14.1158  16.0538  16.0538
    17.2831  17.3344  17.3344  17.5131  17.5510  17.5510  17.8499  17.8906
    17.8906  17.9888  17.9888  18.4060  18.9296  18.9296  18.9608  20.6066
    20.7519  20.7519  20.8120  20.8913  20.8913  20.9758  20.9758  21.0083

     occupation numbers 
     1.0000   1.0000   1.0000   1.0000   1.0000   1.0000   1.0000   1.0000
     1.0000   1.0000   1.0000   1.0000   1.0000   1.0000   1.0000   1.0000
     1.0000   1.0000   1.0000   1.0000   1.0000   1.0000   1.0000   1.0000
     1.0000   1.0000   1.0000   1.0000   1.0000   1.0000   1.0000   1.0000
     1.0000   1.0000   1.0000   1.0000   1.0000   1.0000   1.0000   1.0000
     1.0000   1.0000   1.0000   1.0000   1.0000   1.0000   1.0000   1.0000
     1.0000   1.0000   1.0000   1.0000   1.0000   1.0000   1.0000   1.0000
     1.0000   1.0000   1.0000   1.0000   1.0000   1.0000   1.0000   1.0000
     1.0000   1.0000   1.0000   1.0000   1.0000   1.0000   1.0000   1.0000
     1.0000   1.0000   1.0000   1.0000   1.0000   1.0000   1.0000   1.0000
     1.0000   1.0000   1.0000   1.0000   1.0000   1.0000   1.0000   1.0000
     1.0000   1.0000   1.0000   1.0000   1.0000   1.0000   1.0000   1.0000
     1.0000   1.0000   1.0000   1.0000   1.0000   1.0000   1.0000   1.0000
     1.0000   1.0000   1.0000   1.0000   1.0000   1.0000   1.0000   1.0000
     1.0000   1.0000   1.0000   1.0000   1.0000   1.0000   1.0000   1.0000
     1.0000   1.0000   1.0000   1.0000   1.0000   0.0000   1.0000   0.0000
     0.0000   0.0000   0.0000   0.0000   0.0000   0.0000   0.0000   0.0000
     0.0000   0.0000   0.0000   0.0000   0.0000   0.0000   0.0000   0.0000
     0.0000   0.0000   0.0000   0.0000   0.0000   0.0000   0.0000   0.0000

          k = 0.0000 0.0000 0.3333 ( 24280 PWs)   bands (ev):

    -8.4130  -7.6057  -6.7030  -6.0239  -5.8784  -5.8027  -5.4990  -5.2745
    -5.1034  -4.9543  -4.5078  -4.1327  -3.7890  -3.7689  -3.6540  -3.4275
    -3.1636  -3.1062  -2.8929  -2.5940  -2.4837  -2.3189  -2.2873  -1.7190
    -0.8431  -0.6776  -0.5265  -0.3023   0.1635   0.2118   0.3863   0.4312
     0.5032   0.5876   0.5906   0.6886   0.7576   0.7648   1.0794   1.5138
     1.9913   2.0223   2.2081   2.2144   2.4543   2.5091   2.5141   2.7752
     2.9674   3.0131   3.2404   3.2449   3.8640   3.9526   4.0755   4.0879
     4.3127   4.3794   4.5177   4.5729   5.0461   5.1358   5.1536   5.2329
     5.2380   5.5896   5.6190   5.7347   5.8065   6.0629   6.1057   6.2052
     6.2253   6.3292   6.3984   6.4866   6.5527   6.6381   6.6421   6.7566
     6.8025   6.9236   6.9404   6.9749   7.1680   7.1758   7.2158   7.3112
     7.4183   7.5203   7.7464   7.8028   7.8645   8.0885   8.1432   8.3207
     8.3422   8.4739   8.6780   8.7610   8.8019   9.1189   9.2637   9.3773
     9.3989   9.6463   9.6682   9.7211   9.8498   9.9290   9.9598   9.9711
    10.0039  10.0849  10.1290  10.1416  10.2493  10.3007  10.3012  10.4318
    10.4366  11.3059  11.7607  11.8117  12.1189  13.9666  15.7449  15.9416
    17.1886  17.3236  17.9684  18.3011  18.3468  18.5079  18.5226  18.6294
    18.8451  18.8481  18.9998  19.1021  19.2620  19.8506  19.8867  20.4729
    20.6476  20.6877  20.7915  20.8085  20.8373  20.8788  20.9292  20.9541

     occupation numbers 
     1.0000   1.0000   1.0000   1.0000   1.0000   1.0000   1.0000   1.0000
     1.0000   1.0000   1.0000   1.0000   1.0000   1.0000   1.0000   1.0000
     1.0000   1.0000   1.0000   1.0000   1.0000   1.0000   1.0000   1.0000
     1.0000   1.0000   1.0000   1.0000   1.0000   1.0000   1.0000   1.0000
     1.0000   1.0000   1.0000   1.0000   1.0000   1.0000   1.0000   1.0000
     1.0000   1.0000   1.0000   1.0000   1.0000   1.0000   1.0000   1.0000
     1.0000   1.0000   1.0000   1.0000   1.0000   1.0000   1.0000   1.0000
     1.0000   1.0000   1.0000   1.0000   1.0000   1.0000   1.0000   1.0000
     1.0000   1.0000   1.0000   1.0000   1.0000   1.0000   1.0000   1.0000
     1.0000   1.0000   1.0000   1.0000   1.0000   1.0000   1.0000   1.0000
     1.0000   1.0000   1.0000   1.0000   1.0000   1.0000   1.0000   1.0000
     1.0000   1.0000   1.0000   1.0000   1.0000   1.0000   1.0000   1.0000
     1.0000   1.0000   1.0000   1.0000   1.0000   1.0000   1.0000   1.0000
     1.0000   1.0000   1.0000   1.0000   1.0000   1.0000   1.0000   1.0000
     1.0000   1.0000   1.0000   1.0000   1.0000   1.0000   1.0000   1.0000
     1.0000   1.0000   1.0000   1.0000   1.0000   0.0000   1.0000   0.0000
     0.0000   0.0000   0.0000   0.0000   0.0000   0.0000   0.0000   0.0000
     0.0000   0.0000   0.0000   0.0000   0.0000   0.0000   0.0000   0.0000
     0.0000   0.0000   0.0000   0.0000   0.0000   0.0000   0.0000   0.0000

          k = 0.0000 0.3333 0.3333 ( 24236 PWs)   bands (ev):

    -8.2346  -7.4556  -7.1945  -6.5884  -5.9864  -5.6418  -5.3411  -4.9790
    -4.9562  -4.8362  -4.4714  -4.2232  -4.1911  -3.8873  -3.5231  -3.4963
    -2.7887  -2.3632  -2.3196  -2.2924  -2.1624  -2.1523  -1.9955  -1.8426
    -1.4441  -1.3033  -1.0544  -0.8662  -0.4832  -0.0288   0.0695   0.1576
     0.2029   0.5037   0.7146   1.1991   1.2108   1.3483   1.3956   1.4244
     1.4630   1.5165   1.9716   2.1049   2.1817   2.4436   2.7378   2.8542
     3.0014   3.5261   3.6550   3.6640   3.7946   3.8354   4.0030   4.0678
     4.1773   4.5940   4.6641   4.8364   5.0356   5.0669   5.1728   5.3224
     5.3491   5.6218   5.6533   5.7227   5.7763   5.9309   6.0356   6.1053
     6.1618   6.2723   6.3222   6.5061   6.5576   6.6229   6.6908   6.8700
     6.9490   6.9796   7.0604   7.0949   7.2611   7.3087   7.5342   7.7180
     7.9650   8.0023   8.0873   8.0878   8.1436   8.2659   8.2987   8.3440
     8.4051   8.4423   8.5612   8.6713   8.7238   8.7352   8.8933   8.9228
     9.1265   9.2318   9.2662   9.3532   9.5006   9.5033   9.6066   9.6761
     9.7631   9.8162   9.9466  10.0946  10.0955  10.1800  10.4447  10.7849
    11.0799  11.2669  11.5866  11.8578  12.2785  13.8268  15.6841  15.9889
    18.0672  18.1947  18.2334  18.3220  18.3820  18.8182  18.8757  19.0014
    19.2011  19.2356  19.4687  19.5068  19.7086  19.8445  19.9867  20.0317
    20.2078  20.4375  20.4880  20.5171  20.5828  20.6149  20.6281  20.6567

     occupation numbers 
     1.0000   1.0000   1.0000   1.0000   1.0000   1.0000   1.0000   1.0000
     1.0000   1.0000   1.0000   1.0000   1.0000   1.0000   1.0000   1.0000
     1.0000   1.0000   1.0000   1.0000   1.0000   1.0000   1.0000   1.0000
     1.0000   1.0000   1.0000   1.0000   1.0000   1.0000   1.0000   1.0000
     1.0000   1.0000   1.0000   1.0000   1.0000   1.0000   1.0000   1.0000
     1.0000   1.0000   1.0000   1.0000   1.0000   1.0000   1.0000   1.0000
     1.0000   1.0000   1.0000   1.0000   1.0000   1.0000   1.0000   1.0000
     1.0000   1.0000   1.0000   1.0000   1.0000   1.0000   1.0000   1.0000
     1.0000   1.0000   1.0000   1.0000   1.0000   1.0000   1.0000   1.0000
     1.0000   1.0000   1.0000   1.0000   1.0000   1.0000   1.0000   1.0000
     1.0000   1.0000   1.0000   1.0000   1.0000   1.0000   1.0000   1.0000
     1.0000   1.0000   1.0000   1.0000   1.0000   1.0000   1.0000   1.0000
     1.0000   1.0000   1.0000   1.0000   1.0000   1.0000   1.0000   1.0000
     1.0000   1.0000   1.0000   1.0000   1.0000   1.0000   1.0000   1.0000
     1.0000   1.0000   1.0000   1.0000   1.0000   1.0000   1.0000   1.0000
     1.0000   1.0000   1.0000   1.0000   1.0000   0.0000   1.0000   0.0000
     0.0000   0.0000   0.0000   0.0000   0.0000   0.0000   0.0000   0.0000
     0.0000   0.0000   0.0000   0.0000   0.0000   0.0000   0.0000   0.0000
     0.0000   0.0000   0.0000   0.0000   0.0000   0.0000   0.0000   0.0000

          k = 0.3333 0.3333 0.3333 ( 24303 PWs)   bands (ev):

    -8.0853  -7.2838  -6.9486  -6.9486  -6.3186  -6.1823  -6.1823  -5.4254
    -4.2300  -4.0044  -4.0044  -3.5463  -3.3735  -3.3735  -3.3206  -3.3206
    -3.2428  -2.8866  -2.6185  -2.6185  -1.9303  -1.9154  -1.9154  -1.5222
    -1.4435  -1.4435  -1.3673  -1.3673  -1.2699  -1.1159  -1.1159   0.1660
     0.8616   0.8616   0.9949   0.9949   0.9970   1.3018   1.8483   1.8483
     1.9011   1.9205   2.0198   2.0198   2.5791   2.5791   2.6160   2.7465
     2.7706   2.7706   3.2134   3.2134   3.5620   4.1342   4.3215   4.3215
     4.8452   4.9034   4.9034   4.9949   5.1096   5.1096   5.1885   5.3243
     5.3243   5.4141   5.5141   5.5141   5.5625   5.5625   5.6292   6.4279
     6.6964   6.6964   6.9771   7.0193   7.0422   7.0422   7.1235   7.1235
     7.2232   7.2232   7.2716   7.2765   7.2802   7.2802   7.4035   7.4035
     7.4290   7.5363   7.7645   7.7645   7.9344   7.9344   7.9827   8.0416
     8.2270   8.2270   8.3142   8.3142   8.3347   8.4791   8.5103   8.5103
     8.7184   8.7184   8.8403   9.1354   9.1643   9.5791   9.5791   9.8442
     9.8442  10.5040  10.5040  10.5627  10.6105  11.0035  11.0035  11.2988
    11.2988  11.3550  11.5681  11.6895  11.6895  13.6762  16.0040  16.0040
    18.1091  18.2416  18.2416  18.4813  18.6562  18.6562  19.2444  19.3735
    19.3735  19.5714  19.5714  19.5958  19.6465  19.6465  19.6979  19.7571
    19.7571  19.8851  19.9378  19.9378  20.0314  20.0314  20.0478  20.2021

     occupation numbers 
     1.0000   1.0000   1.0000   1.0000   1.0000   1.0000   1.0000   1.0000
     1.0000   1.0000   1.0000   1.0000   1.0000   1.0000   1.0000   1.0000
     1.0000   1.0000   1.0000   1.0000   1.0000   1.0000   1.0000   1.0000
     1.0000   1.0000   1.0000   1.0000   1.0000   1.0000   1.0000   1.0000
     1.0000   1.0000   1.0000   1.0000   1.0000   1.0000   1.0000   1.0000
     1.0000   1.0000   1.0000   1.0000   1.0000   1.0000   1.0000   1.0000
     1.0000   1.0000   1.0000   1.0000   1.0000   1.0000   1.0000   1.0000
     1.0000   1.0000   1.0000   1.0000   1.0000   1.0000   1.0000   1.0000
     1.0000   1.0000   1.0000   1.0000   1.0000   1.0000   1.0000   1.0000
     1.0000   1.0000   1.0000   1.0000   1.0000   1.0000   1.0000   1.0000
     1.0000   1.0000   1.0000   1.0000   1.0000   1.0000   1.0000   1.0000
     1.0000   1.0000   1.0000   1.0000   1.0000   1.0000   1.0000   1.0000
     1.0000   1.0000   1.0000   1.0000   1.0000   1.0000   1.0000   1.0000
     1.0000   1.0000   1.0000   1.0000   1.0000   1.0000   1.0000   1.0000
     1.0000   1.0000   1.0000   1.0000   1.0000   1.0000   1.0000   1.0000
     1.0000   1.0000   1.0000   1.0000   1.0000   0.0000   1.0000   0.0000
     0.0000   0.0000   0.0000   0.0000   0.0000   0.0000   0.0000   0.0000
     0.0000   0.0000   0.0000   0.0000   0.0000   0.0000   0.0000   0.0000
     0.0000   0.0000   0.0000   0.0000   0.0000   0.0000   0.0000   0.0000

          k =-0.3333 0.0000 0.3333 ( 24236 PWs)   bands (ev):

    -8.2213  -7.5601  -7.0717  -6.5739  -6.0420  -5.6530  -5.3562  -5.0323
    -4.8909  -4.7108  -4.5145  -4.2865  -4.1914  -4.0147  -3.5566  -3.2972
    -2.7645  -2.4143  -2.3613  -2.2548  -2.1749  -2.1195  -2.0597  -1.6544
    -1.5462  -1.2859  -1.0804  -0.9529  -0.5239  -0.0184   0.0877   0.1373
     0.3266   0.5403   0.9497   1.0461   1.1903   1.2255   1.2716   1.4002
     1.5194   1.6281   1.8903   1.9108   2.1549   2.6503   2.6986   2.9088
     3.0055   3.4926   3.6588   3.7240   3.7792   3.9357   4.0440   4.1596
     4.2269   4.4358   4.5765   4.8335   4.9740   5.0120   5.1976   5.2803
     5.4437   5.5916   5.6471   5.7313   5.8324   6.0221   6.0869   6.1582
     6.2020   6.2632   6.3166   6.4244   6.4868   6.6462   6.6553   6.8091
     6.9058   6.9872   7.0557   7.1459   7.2756   7.4180   7.5407   7.6819
     7.9015   7.9153   7.9730   8.0935   8.2018   8.2309   8.2948   8.3107
     8.3984   8.4745   8.5869   8.6260   8.7712   8.8022   8.9298   8.9849
     9.1137   9.1623   9.2678   9.3651   9.4711   9.5315   9.5470   9.7075
     9.7567   9.8218   9.9800  10.0706  10.1139  10.1391  10.5502  10.9531
    10.9822  11.1927  11.5186  11.7433  12.3539  14.0598  15.5902  15.8844
    18.0466  18.2050  18.2831  18.3317  18.3801  18.8121  18.9409  19.1116
    19.1356  19.2889  19.3853  19.5094  19.7164  19.8627  19.8963  20.0487
    20.2556  20.3625  20.4302  20.5253  20.5547  20.6080  20.6611  20.7030

     occupation numbers 
     1.0000   1.0000   1.0000   1.0000   1.0000   1.0000   1.0000   1.0000
     1.0000   1.0000   1.0000   1.0000   1.0000   1.0000   1.0000   1.0000
     1.0000   1.0000   1.0000   1.0000   1.0000   1.0000   1.0000   1.0000
     1.0000   1.0000   1.0000   1.0000   1.0000   1.0000   1.0000   1.0000
     1.0000   1.0000   1.0000   1.0000   1.0000   1.0000   1.0000   1.0000
     1.0000   1.0000   1.0000   1.0000   1.0000   1.0000   1.0000   1.0000
     1.0000   1.0000   1.0000   1.0000   1.0000   1.0000   1.0000   1.0000
     1.0000   1.0000   1.0000   1.0000   1.0000   1.0000   1.0000   1.0000
     1.0000   1.0000   1.0000   1.0000   1.0000   1.0000   1.0000   1.0000
     1.0000   1.0000   1.0000   1.0000   1.0000   1.0000   1.0000   1.0000
     1.0000   1.0000   1.0000   1.0000   1.0000   1.0000   1.0000   1.0000
     1.0000   1.0000   1.0000   1.0000   1.0000   1.0000   1.0000   1.0000
     1.0000   1.0000   1.0000   1.0000   1.0000   1.0000   1.0000   1.0000
     1.0000   1.0000   1.0000   1.0000   1.0000   1.0000   1.0000   1.0000
     1.0000   1.0000   1.0000   1.0000   1.0000   1.0000   1.0000   1.0000
     1.0000   1.0000   1.0000   1.0000   1.0000   0.0000   1.0000   0.0000
     0.0000   0.0000   0.0000   0.0000   0.0000   0.0000   0.0000   0.0000
     0.0000   0.0000   0.0000   0.0000   0.0000   0.0000   0.0000   0.0000
     0.0000   0.0000   0.0000   0.0000   0.0000   0.0000   0.0000   0.0000

          k = 0.3333-0.3333 0.3333 ( 24303 PWs)   bands (ev):

    -8.0636  -7.4085  -6.9494  -6.8007  -6.4706  -6.1801  -5.9468  -5.4797
    -4.5505  -4.0114  -3.9246  -3.6801  -3.4083  -3.3457  -3.3125  -3.1532
    -3.0460  -2.8660  -2.6521  -2.3834  -2.0550  -1.8753  -1.8317  -1.7060
    -1.4805  -1.4658  -1.3810  -1.3291  -1.3205  -1.1813  -1.0593   0.0031
     0.7392   0.9140   0.9761   0.9940   1.0954   1.4492   1.7105   1.7965
     1.8829   1.9588   2.0777   2.2884   2.5914   2.6054   2.7058   2.7343
     2.7637   2.8279   2.9461   3.2636   3.5156   4.0065   4.2589   4.3514
     4.7664   4.7831   4.8919   5.0254   5.0325   5.0871   5.2295   5.2816
     5.3041   5.4563   5.4728   5.5461   5.7086   5.8300   5.8854   6.4811
     6.6119   6.7329   6.9319   6.9454   6.9843   7.0539   7.0935   7.1279
     7.1918   7.2153   7.2577   7.2899   7.3092   7.3511   7.3791   7.3878
     7.4233   7.4736   7.7656   7.7797   7.8453   7.9513   7.9771   7.9860
     8.1547   8.1907   8.3010   8.3209   8.4170   8.4242   8.4382   8.5719
     8.7265   8.7759   8.9959   9.0210   9.1995   9.5573   9.6403   9.6873
     9.9751  10.4082  10.5500  10.5616  10.6180  10.9688  10.9729  11.2215
    11.2488  11.3427  11.5019  11.7831  11.8119  14.0463  15.6647  15.9953
    18.0985  18.2730  18.3452  18.5493  18.6759  18.7574  19.1694  19.3876
    19.4327  19.5005  19.5331  19.5703  19.6400  19.6478  19.6752  19.7443
    19.7572  19.8086  19.9319  19.9341  20.0086  20.0127  20.0706  20.1831

     occupation numbers 
     1.0000   1.0000   1.0000   1.0000   1.0000   1.0000   1.0000   1.0000
     1.0000   1.0000   1.0000   1.0000   1.0000   1.0000   1.0000   1.0000
     1.0000   1.0000   1.0000   1.0000   1.0000   1.0000   1.0000   1.0000
     1.0000   1.0000   1.0000   1.0000   1.0000   1.0000   1.0000   1.0000
     1.0000   1.0000   1.0000   1.0000   1.0000   1.0000   1.0000   1.0000
     1.0000   1.0000   1.0000   1.0000   1.0000   1.0000   1.0000   1.0000
     1.0000   1.0000   1.0000   1.0000   1.0000   1.0000   1.0000   1.0000
     1.0000   1.0000   1.0000   1.0000   1.0000   1.0000   1.0000   1.0000
     1.0000   1.0000   1.0000   1.0000   1.0000   1.0000   1.0000   1.0000
     1.0000   1.0000   1.0000   1.0000   1.0000   1.0000   1.0000   1.0000
     1.0000   1.0000   1.0000   1.0000   1.0000   1.0000   1.0000   1.0000
     1.0000   1.0000   1.0000   1.0000   1.0000   1.0000   1.0000   1.0000
     1.0000   1.0000   1.0000   1.0000   1.0000   1.0000   1.0000   1.0000
     1.0000   1.0000   1.0000   1.0000   1.0000   1.0000   1.0000   1.0000
     1.0000   1.0000   1.0000   1.0000   1.0000   1.0000   1.0000   1.0000
     1.0000   1.0000   1.0000   1.0000   1.0000   0.0000   1.0000   0.0000
     0.0000   0.0000   0.0000   0.0000   0.0000   0.0000   0.0000   0.0000
     0.0000   0.0000   0.0000   0.0000   0.0000   0.0000   0.0000   0.0000
     0.0000   0.0000   0.0000   0.0000   0.0000   0.0000   0.0000   0.0000

     highest occupied, lowest unoccupied level (ev):    14.9579   13.6762

!    total energy              =    -724.68297599 Ry
     Harris-Foulkes estimate   =    -724.68297582 Ry
     estimated scf accuracy    <       0.00000013 Ry

     The total energy is the sum of the following terms:

     one-electron contribution =     233.19463003 Ry
     hartree contribution      =      69.06232785 Ry
     xc contribution           =    -226.39403663 Ry
     ewald contribution        =    -800.54589724 Ry

     total magnetization       =     2.00 Bohr mag/cell
     absolute magnetization    =     2.20 Bohr mag/cell

     convergence has been achieved in  11 iterations

     Writing output data file di.save
 
     init_run     :      1.25s CPU      1.66s WALL (       1 calls)
     electrons    :     30.53s CPU     30.98s WALL (       1 calls)

     Called by init_run:
     wfcinit      :      0.76s CPU      0.84s WALL (       1 calls)
     wfcinit:atom :      0.01s CPU      0.01s WALL (       2 calls)
     wfcinit:wfcr :      0.71s CPU      0.78s WALL (       2 calls)
     potinit      :      0.07s CPU      0.08s WALL (       1 calls)

     Called by electrons:
     c_bands      :     28.62s CPU     29.03s WALL (      11 calls)
     sum_band     :      1.29s CPU      1.30s WALL (      11 calls)
     v_of_rho     :      0.44s CPU      0.45s WALL (      12 calls)
     v_h          :      0.01s CPU      0.01s WALL (      12 calls)
     v_xc         :      0.43s CPU      0.44s WALL (      12 calls)
     mix_rho      :      0.09s CPU      0.09s WALL (      11 calls)

     Called by c_bands:
     init_us_2    :      0.22s CPU      0.22s WALL (      46 calls)
     cegterg      :     25.94s CPU     26.33s WALL (      22 calls)

     Called by sum_band:

     Called by *egterg:
     h_psi        :     10.43s CPU     10.56s WALL (     147 calls)
     g_psi        :      0.06s CPU      0.06s WALL (     123 calls)
     cdiaghg      :     10.78s CPU     10.84s WALL (     145 calls)
     cegterg:over :      2.07s CPU      2.08s WALL (     123 calls)
     cegterg:upda :      1.56s CPU      1.57s WALL (     123 calls)
     cegterg:last :      0.57s CPU      0.57s WALL (      22 calls)

     Called by h_psi:
     h_psi:pot    :     10.31s CPU     10.44s WALL (     147 calls)
     h_psi:calbec :      2.23s CPU      2.25s WALL (     147 calls)
     vloc_psi     :      5.77s CPU      5.86s WALL (     147 calls)
     add_vuspsi   :      2.31s CPU      2.33s WALL (     147 calls)

     General routines
     calbec       :      2.23s CPU      2.25s WALL (     147 calls)
     fft          :      0.13s CPU      0.35s WALL (     249 calls)
     fftw         :      6.13s CPU      6.14s WALL (   22602 calls)
 
     Parallel routines
     fft_scatter  :      1.80s CPU      1.76s WALL (   22851 calls)
 
     PWSCF        :    34.61s CPU        38.19s WALL

 
   This run was terminated on:  10:28:40  12May2020            

=------------------------------------------------------------------------------=
   JOB DONE.
=------------------------------------------------------------------------------=
