
     Program PWSCF v.6.1 (svn rev. 13369) starts on  1Jun2021 at 13:19:11 

     This program is part of the open-source Quantum ESPRESSO suite
     for quantum simulation of materials; please cite
         "P. Giannozzi et al., J. Phys.:Condens. Matter 21 395502 (2009);
          URL http://www.quantum-espresso.org", 
     in publications or presentations arising from this work. More details at
     http://www.quantum-espresso.org/quote

     Parallel version (MPI), running on    32 processors
     K-points division:     npool     =       2
     R & G space division:  proc/nbgrp/npool/nimage =      16
     Reading input from scf.in
Warning: card &IONS ignored
Warning: card / ignored

     Current dimensions of program PWSCF are:
     Max number of different atomic species (ntypx) = 10
     Max number of k-points (npk) =  40000
     Max angular momentum in pseudopotentials (lmaxx) =  3

     Subspace diagonalization in iterative solution of the eigenvalue problem:
     one sub-group per band group will be used
     scalapack distributed-memory algorithm (size of sub-group:  4*  4 procs)

 
     Parallelization info
     --------------------
     sticks:   dense  smooth     PW     G-vecs:    dense   smooth      PW
     Min         252     252     62                12125    12125    1510
     Max         254     254     63                12129    12129    1515
     Sum        4049    4049   1005               194039   194039   24207
 


     bravais-lattice index     =            1
     lattice parameter (alat)  =      13.4862  a.u.
     unit-cell volume          =    2452.8358 (a.u.)^3
     number of atoms/cell      =           63
     number of atomic types    =            2
     number of electrons       =       254.00
     number of Kohn-Sham states=          152
     kinetic-energy cutoff     =      70.0000  Ry
     charge density cutoff     =     280.0000  Ry
     convergence threshold     =      1.0E-06
     mixing beta               =       0.5000
     number of iterations used =            8  plain     mixing
     Exchange-correlation      = PBE ( 1  4  3  4 0 0)

     celldm(1)=  13.486197  celldm(2)=   0.000000  celldm(3)=   0.000000
     celldm(4)=   0.000000  celldm(5)=   0.000000  celldm(6)=   0.000000

     crystal axes: (cart. coord. in units of alat)
               a(1) = (   1.000000   0.000000   0.000000 )  
               a(2) = (   0.000000   1.000000   0.000000 )  
               a(3) = (   0.000000   0.000000   1.000000 )  

     reciprocal axes: (cart. coord. in units 2 pi/alat)
               b(1) = (  1.000000  0.000000  0.000000 )  
               b(2) = (  0.000000  1.000000  0.000000 )  
               b(3) = (  0.000000  0.000000  1.000000 )  


     PseudoPot. # 1 for C  read from file:
     /export/data/share/tjsmart/Pseudo/C_ONCV_PBE-1.0.upf
     MD5 check sum: 72b63e32b2fd29504de26a4901699f60
     Pseudo is Norm-conserving, Zval =  4.0
     Generated using ONCVPSP code by D. R. Hamann
     Using radial grid of 1248 points,  4 beta functions with: 
                l(1) =   0
                l(2) =   0
                l(3) =   1
                l(4) =   1

     PseudoPot. # 2 for N  read from file:
     /export/data/share/tjsmart/Pseudo/N_ONCV_PBE-1.0.upf
     MD5 check sum: 09890da6b2972017450f7114a6086fad
     Pseudo is Norm-conserving, Zval =  5.0
     Generated using ONCVPSP code by D. R. Hamann
     Using radial grid of 1058 points,  4 beta functions with: 
                l(1) =   0
                l(2) =   0
                l(3) =   1
                l(4) =   1

     atomic species   valence    mass     pseudopotential
        C              4.00    12.01110     C ( 1.00)
        N              5.00    14.00670     N ( 1.00)

     Starting magnetic structure 
     atomic species   magnetization
        C            0.500
        N            0.500

      6 Sym. Ops. (no inversion) found


                                    s                        frac. trans.

      isym =  1     identity                                     

 cryst.   s( 1) = (     1          0          0      )
                  (     0          1          0      )
                  (     0          0          1      )

 cart.    s( 1) = (  1.0000000  0.0000000  0.0000000 )
                  (  0.0000000  1.0000000  0.0000000 )
                  (  0.0000000  0.0000000  1.0000000 )


      isym =  2     120 deg rotation - cart. axis [-1,-1,-1]     

 cryst.   s( 2) = (     0          0          1      )
                  (     1          0          0      )
                  (     0          1          0      )

 cart.    s( 2) = (  0.0000000  1.0000000  0.0000000 )
                  (  0.0000000  0.0000000  1.0000000 )
                  (  1.0000000  0.0000000  0.0000000 )


      isym =  3     120 deg rotation - cart. axis [1,1,1]        

 cryst.   s( 3) = (     0          1          0      )
                  (     0          0          1      )
                  (     1          0          0      )

 cart.    s( 3) = (  0.0000000  0.0000000  1.0000000 )
                  (  1.0000000  0.0000000  0.0000000 )
                  (  0.0000000  1.0000000  0.0000000 )


      isym =  4     inv. 180 deg rotation - cart. axis [1,-1,0]  

 cryst.   s( 4) = (     0          1          0      )
                  (     1          0          0      )
                  (     0          0          1      )

 cart.    s( 4) = (  0.0000000  1.0000000  0.0000000 )
                  (  1.0000000  0.0000000  0.0000000 )
                  (  0.0000000  0.0000000  1.0000000 )


      isym =  5     inv. 180 deg rotation - cart. axis [-1,0,1]  

 cryst.   s( 5) = (     0          0          1      )
                  (     0          1          0      )
                  (     1          0          0      )

 cart.    s( 5) = (  0.0000000  0.0000000  1.0000000 )
                  (  0.0000000  1.0000000  0.0000000 )
                  (  1.0000000  0.0000000  0.0000000 )


      isym =  6     inv. 180 deg rotation - cart. axis [0,1,-1]  

 cryst.   s( 6) = (     1          0          0      )
                  (     0          0          1      )
                  (     0          1          0      )

 cart.    s( 6) = (  1.0000000  0.0000000  0.0000000 )
                  (  0.0000000  0.0000000  1.0000000 )
                  (  0.0000000  1.0000000  0.0000000 )


     point group C_3v (3m)  
     there are  3 classes
     the character table:

       E     2C3   3s_v 
A_1    1.00  1.00  1.00
A_2    1.00  1.00 -1.00
E      2.00 -1.00  0.00

     the symmetry operations in each class and the name of the first element:

     E        1
          identity                                               
     2C3      2    3
          120 deg rotation - cart. axis [-1,-1,-1]               
     3s_v     4    5    6
          inv. 180 deg rotation - cart. axis [1,-1,0]            

   Cartesian axes

     site n.     atom                  positions (alat units)
         1           C   tau(   1) = (   0.3757826   0.3757826   0.8735660  )
         2           C   tau(   2) = (   0.5002797   0.0004535   0.0004535  )
         3           C   tau(   3) = (   0.4999752  -0.0004630   0.4999752  )
         4           C   tau(   4) = (   0.0004535   0.5002797   0.0004535  )
         5           C   tau(   5) = (  -0.0004630   0.4999752   0.4999752  )
         6           C   tau(   6) = (  -0.0001230  -0.0001230  -0.0001230  )
         7           C   tau(   7) = (   0.0004535   0.0004535   0.5002797  )
         8           C   tau(   8) = (   0.2504734   0.2504734  -0.0008756  )
         9           C   tau(   9) = (   0.2514561   0.2514561   0.4964832  )
        10           C   tau(  10) = (   0.2501313   0.7491431   0.0008329  )
        11           C   tau(  11) = (   0.2509929   0.7486868   0.5021470  )
        12           C   tau(  12) = (   0.7491431   0.2501313   0.0008329  )
        13           C   tau(  13) = (   0.7486868   0.2509929   0.5021470  )
        14           C   tau(  14) = (   0.7494982   0.7494982  -0.0008973  )
        15           C   tau(  15) = (   0.4999752   0.4999752  -0.0004630  )
        16           C   tau(  16) = (   0.7485130   0.7485130   0.4982808  )
        17           C   tau(  17) = (   0.5021470   0.2509929   0.7486868  )
        18           C   tau(  18) = (   0.5021470   0.7486868   0.2509929  )
        19           C   tau(  19) = (   0.4982808   0.7485130   0.7485130  )
        20           C   tau(  20) = (  -0.0008756   0.2504734   0.2504734  )
        21           C   tau(  21) = (   0.0008329   0.2501313   0.7491431  )
        22           C   tau(  22) = (   0.0008329   0.7491431   0.2501313  )
        23           C   tau(  23) = (  -0.0008973   0.7494982   0.7494982  )
        24           C   tau(  24) = (   0.2514561   0.4964832   0.2514561  )
        25           C   tau(  25) = (   0.2509929   0.5021470   0.7486868  )
        26           C   tau(  26) = (   0.2504734  -0.0008756   0.2504734  )
        27           C   tau(  27) = (   0.2501313   0.0008329   0.7491431  )
        28           C   tau(  28) = (   0.7486868   0.5021470   0.2509929  )
        29           C   tau(  29) = (   0.7485130   0.4982808   0.7485130  )
        30           C   tau(  30) = (   0.4964832   0.2514561   0.2514561  )
        31           C   tau(  31) = (   0.7491431   0.0008329   0.2501313  )
        32           C   tau(  32) = (   0.6242020   0.8735916   0.6242020  )
        33           C   tau(  33) = (   0.6363542   0.3620336   0.6363542  )
        34           C   tau(  34) = (   0.3756703   0.8762231   0.8762231  )
        35           C   tau(  35) = (   0.3757826   0.8735660   0.3757826  )
        36           C   tau(  36) = (   0.8762231   0.3756703   0.8762231  )
        37           C   tau(  37) = (   0.8735660   0.3757826   0.3757826  )
        38           C   tau(  38) = (   0.8744694   0.8744694   0.8744694  )
        39           C   tau(  39) = (   0.8762231   0.8762231   0.3756703  )
        40           C   tau(  40) = (   0.1253691   0.1253691   0.8744404  )
        41           C   tau(  41) = (   0.1246222   0.1246222   0.3748737  )
        42           C   tau(  42) = (   0.1235361   0.6243070   0.8761730  )
        43           C   tau(  43) = (   0.1265384   0.6235130   0.3763914  )
        44           C   tau(  44) = (   0.6243070   0.1235361   0.8761730  )
        45           C   tau(  45) = (   0.6235130   0.1265384   0.3763914  )
        46           C   tau(  46) = (   0.6243070   0.8761730   0.1235361  )
        47           C   tau(  47) = (   0.6242020   0.6242020   0.8735916  )
        48           C   tau(  48) = (   0.3748737   0.1246222   0.1246222  )
        49           C   tau(  49) = (   0.3763914   0.1265384   0.6235130  )
        50           C   tau(  50) = (   0.3763914   0.6235130   0.1265384  )
        51           C   tau(  51) = (   0.3620336   0.6363542   0.6363542  )
        52           C   tau(  52) = (   0.8744404   0.1253691   0.1253691  )
        53           C   tau(  53) = (   0.8761730   0.1235361   0.6243070  )
        54           C   tau(  54) = (   0.8761730   0.6243070   0.1235361  )
        55           C   tau(  55) = (   0.8735916   0.6242020   0.6242020  )
        56           C   tau(  56) = (   0.1246222   0.3748737   0.1246222  )
        57           C   tau(  57) = (   0.1265384   0.3763914   0.6235130  )
        58           C   tau(  58) = (   0.1253691   0.8744404   0.1253691  )
        59           C   tau(  59) = (   0.1235361   0.8761730   0.6243070  )
        60           C   tau(  60) = (   0.6235130   0.3763914   0.1265384  )
        61           C   tau(  61) = (   0.6363542   0.6363542   0.3620336  )
        62           C   tau(  62) = (   0.7494982  -0.0008973   0.7494982  )
        63           N   tau(  63) = (   0.3680390   0.3680390   0.3680390  )

   Crystallographic axes

     site n.     atom                  positions (cryst. coord.)
         1           C   tau(   1) = (  0.3757826  0.3757826  0.8735660  )
         2           C   tau(   2) = (  0.5002797  0.0004535  0.0004535  )
         3           C   tau(   3) = (  0.4999752 -0.0004630  0.4999752  )
         4           C   tau(   4) = (  0.0004535  0.5002797  0.0004535  )
         5           C   tau(   5) = ( -0.0004630  0.4999752  0.4999752  )
         6           C   tau(   6) = ( -0.0001230 -0.0001230 -0.0001230  )
         7           C   tau(   7) = (  0.0004535  0.0004535  0.5002797  )
         8           C   tau(   8) = (  0.2504734  0.2504734 -0.0008756  )
         9           C   tau(   9) = (  0.2514561  0.2514561  0.4964832  )
        10           C   tau(  10) = (  0.2501313  0.7491431  0.0008329  )
        11           C   tau(  11) = (  0.2509929  0.7486868  0.5021470  )
        12           C   tau(  12) = (  0.7491431  0.2501313  0.0008329  )
        13           C   tau(  13) = (  0.7486868  0.2509929  0.5021470  )
        14           C   tau(  14) = (  0.7494982  0.7494982 -0.0008973  )
        15           C   tau(  15) = (  0.4999752  0.4999752 -0.0004630  )
        16           C   tau(  16) = (  0.7485130  0.7485130  0.4982808  )
        17           C   tau(  17) = (  0.5021470  0.2509929  0.7486868  )
        18           C   tau(  18) = (  0.5021470  0.7486868  0.2509929  )
        19           C   tau(  19) = (  0.4982808  0.7485130  0.7485130  )
        20           C   tau(  20) = ( -0.0008756  0.2504734  0.2504734  )
        21           C   tau(  21) = (  0.0008329  0.2501313  0.7491431  )
        22           C   tau(  22) = (  0.0008329  0.7491431  0.2501313  )
        23           C   tau(  23) = ( -0.0008973  0.7494982  0.7494982  )
        24           C   tau(  24) = (  0.2514561  0.4964832  0.2514561  )
        25           C   tau(  25) = (  0.2509929  0.5021470  0.7486868  )
        26           C   tau(  26) = (  0.2504734 -0.0008756  0.2504734  )
        27           C   tau(  27) = (  0.2501313  0.0008329  0.7491431  )
        28           C   tau(  28) = (  0.7486868  0.5021470  0.2509929  )
        29           C   tau(  29) = (  0.7485130  0.4982808  0.7485130  )
        30           C   tau(  30) = (  0.4964832  0.2514561  0.2514561  )
        31           C   tau(  31) = (  0.7491431  0.0008329  0.2501313  )
        32           C   tau(  32) = (  0.6242020  0.8735916  0.6242020  )
        33           C   tau(  33) = (  0.6363542  0.3620336  0.6363542  )
        34           C   tau(  34) = (  0.3756703  0.8762231  0.8762231  )
        35           C   tau(  35) = (  0.3757826  0.8735660  0.3757826  )
        36           C   tau(  36) = (  0.8762231  0.3756703  0.8762231  )
        37           C   tau(  37) = (  0.8735660  0.3757826  0.3757826  )
        38           C   tau(  38) = (  0.8744694  0.8744694  0.8744694  )
        39           C   tau(  39) = (  0.8762231  0.8762231  0.3756703  )
        40           C   tau(  40) = (  0.1253691  0.1253691  0.8744404  )
        41           C   tau(  41) = (  0.1246222  0.1246222  0.3748737  )
        42           C   tau(  42) = (  0.1235361  0.6243070  0.8761730  )
        43           C   tau(  43) = (  0.1265384  0.6235130  0.3763914  )
        44           C   tau(  44) = (  0.6243070  0.1235361  0.8761730  )
        45           C   tau(  45) = (  0.6235130  0.1265384  0.3763914  )
        46           C   tau(  46) = (  0.6243070  0.8761730  0.1235361  )
        47           C   tau(  47) = (  0.6242020  0.6242020  0.8735916  )
        48           C   tau(  48) = (  0.3748737  0.1246222  0.1246222  )
        49           C   tau(  49) = (  0.3763914  0.1265384  0.6235130  )
        50           C   tau(  50) = (  0.3763914  0.6235130  0.1265384  )
        51           C   tau(  51) = (  0.3620336  0.6363542  0.6363542  )
        52           C   tau(  52) = (  0.8744404  0.1253691  0.1253691  )
        53           C   tau(  53) = (  0.8761730  0.1235361  0.6243070  )
        54           C   tau(  54) = (  0.8761730  0.6243070  0.1235361  )
        55           C   tau(  55) = (  0.8735916  0.6242020  0.6242020  )
        56           C   tau(  56) = (  0.1246222  0.3748737  0.1246222  )
        57           C   tau(  57) = (  0.1265384  0.3763914  0.6235130  )
        58           C   tau(  58) = (  0.1253691  0.8744404  0.1253691  )
        59           C   tau(  59) = (  0.1235361  0.8761730  0.6243070  )
        60           C   tau(  60) = (  0.6235130  0.3763914  0.1265384  )
        61           C   tau(  61) = (  0.6363542  0.6363542  0.3620336  )
        62           C   tau(  62) = (  0.7494982 -0.0008973  0.7494982  )
        63           N   tau(  63) = (  0.3680390  0.3680390  0.3680390  )

     number of k points=     1
                       cart. coord. in units 2pi/alat
        k(    1) = (   0.0000000   0.0000000   0.0000000), wk =   1.0000000

                       cryst. coord.
        k(    1) = (   0.0000000   0.0000000   0.0000000), wk =   1.0000000

     Dense  grid:   194039 G-vectors     FFT dimensions: (  72,  72,  72)

     Occupations read from input 

      Spin-up

        1.0000   1.0000   1.0000   1.0000   1.0000   1.0000   1.0000   1.0000
        1.0000   1.0000   1.0000   1.0000   1.0000   1.0000   1.0000   1.0000
        1.0000   1.0000   1.0000   1.0000   1.0000   1.0000   1.0000   1.0000
        1.0000   1.0000   1.0000   1.0000   1.0000   1.0000   1.0000   1.0000
        1.0000   1.0000   1.0000   1.0000   1.0000   1.0000   1.0000   1.0000
        1.0000   1.0000   1.0000   1.0000   1.0000   1.0000   1.0000   1.0000
        1.0000   1.0000   1.0000   1.0000   1.0000   1.0000   1.0000   1.0000
        1.0000   1.0000   1.0000   1.0000   1.0000   1.0000   1.0000   1.0000
        1.0000   1.0000   1.0000   1.0000   1.0000   1.0000   1.0000   1.0000
        1.0000   1.0000   1.0000   1.0000   1.0000   1.0000   1.0000   1.0000
        1.0000   1.0000   1.0000   1.0000   1.0000   1.0000   1.0000   1.0000
        1.0000   1.0000   1.0000   1.0000   1.0000   1.0000   1.0000   1.0000
        1.0000   1.0000   1.0000   1.0000   1.0000   1.0000   1.0000   1.0000
        1.0000   1.0000   1.0000   1.0000   1.0000   1.0000   1.0000   1.0000
        1.0000   1.0000   1.0000   1.0000   1.0000   1.0000   1.0000   1.0000
        1.0000   1.0000   1.0000   1.0000   1.0000   1.0000   1.0000   1.0000
        0.0000   0.0000   0.0000   0.0000   0.0000   0.0000   0.0000   0.0000
        0.0000   0.0000   0.0000   0.0000   0.0000   0.0000   0.0000   0.0000
        0.0000   0.0000   0.0000   0.0000   0.0000   0.0000   0.0000   0.0000

      Spin-down

        1.0000   1.0000   1.0000   1.0000   1.0000   1.0000   1.0000   1.0000
        1.0000   1.0000   1.0000   1.0000   1.0000   1.0000   1.0000   1.0000
        1.0000   1.0000   1.0000   1.0000   1.0000   1.0000   1.0000   1.0000
        1.0000   1.0000   1.0000   1.0000   1.0000   1.0000   1.0000   1.0000
        1.0000   1.0000   1.0000   1.0000   1.0000   1.0000   1.0000   1.0000
        1.0000   1.0000   1.0000   1.0000   1.0000   1.0000   1.0000   1.0000
        1.0000   1.0000   1.0000   1.0000   1.0000   1.0000   1.0000   1.0000
        1.0000   1.0000   1.0000   1.0000   1.0000   1.0000   1.0000   1.0000
        1.0000   1.0000   1.0000   1.0000   1.0000   1.0000   1.0000   1.0000
        1.0000   1.0000   1.0000   1.0000   1.0000   1.0000   1.0000   1.0000
        1.0000   1.0000   1.0000   1.0000   1.0000   1.0000   1.0000   1.0000
        1.0000   1.0000   1.0000   1.0000   1.0000   1.0000   1.0000   1.0000
        1.0000   1.0000   1.0000   1.0000   1.0000   1.0000   1.0000   1.0000
        1.0000   1.0000   1.0000   1.0000   1.0000   1.0000   1.0000   1.0000
        1.0000   1.0000   1.0000   1.0000   1.0000   1.0000   1.0000   1.0000
        1.0000   1.0000   1.0000   1.0000   1.0000   0.0000   1.0000   0.0000
        0.0000   0.0000   0.0000   0.0000   0.0000   0.0000   0.0000   0.0000
        0.0000   0.0000   0.0000   0.0000   0.0000   0.0000   0.0000   0.0000
        0.0000   0.0000   0.0000   0.0000   0.0000   0.0000   0.0000   0.0000

     Estimated max dynamical RAM per process >      42.63MB

     Estimated total allocated dynamical RAM >    1364.05MB
     Generating pointlists ...
     new r_m :   0.0855 (alat units)  1.1530 (a.u.) for type    1
     new r_m :   0.0862 (alat units)  1.1627 (a.u.) for type    2

     Initial potential from superposition of free atoms

     starting charge  252.99722, renormalised to  254.00000
     Starting wfc are  252 randomized atomic wfcs

     total cpu time spent up to now is        1.9 secs

     per-process dynamical memory:    49.0 Mb

     Self-consistent Calculation

     iteration #  1     ecut=    70.00 Ry     beta=0.50
     Davidson diagonalization with overlap
     ethr =  1.00E-02,  avg # of iterations =  3.0

     total cpu time spent up to now is        3.0 secs

     total energy              =    -722.07658090 Ry
     Harris-Foulkes estimate   =    -717.26829970 Ry
     estimated scf accuracy    <       6.84540613 Ry

     total magnetization       =     2.00 Bohr mag/cell
     absolute magnetization    =     3.62 Bohr mag/cell

     iteration #  2     ecut=    70.00 Ry     beta=0.50
     Davidson diagonalization with overlap
     ethr =  2.70E-03,  avg # of iterations =  2.0

     total cpu time spent up to now is        3.7 secs

     total energy              =    -723.82046137 Ry
     Harris-Foulkes estimate   =    -722.47830056 Ry
     estimated scf accuracy    <       1.55063071 Ry

     total magnetization       =     2.00 Bohr mag/cell
     absolute magnetization    =     2.45 Bohr mag/cell

     iteration #  3     ecut=    70.00 Ry     beta=0.50
     Davidson diagonalization with overlap
     ethr =  6.10E-04,  avg # of iterations =  3.5

     total cpu time spent up to now is        4.7 secs

     total energy              =    -724.15083874 Ry
     Harris-Foulkes estimate   =    -724.20256206 Ry
     estimated scf accuracy    <       0.82473530 Ry

     total magnetization       =     2.00 Bohr mag/cell
     absolute magnetization    =     2.12 Bohr mag/cell

     iteration #  4     ecut=    70.00 Ry     beta=0.50
     Davidson diagonalization with overlap
     ethr =  3.25E-04,  avg # of iterations =  7.5

     total cpu time spent up to now is        5.9 secs

     total energy              =    -724.30419698 Ry
     Harris-Foulkes estimate   =    -724.29007003 Ry
     estimated scf accuracy    <       0.02145909 Ry

     total magnetization       =     2.00 Bohr mag/cell
     absolute magnetization    =     2.15 Bohr mag/cell

     iteration #  5     ecut=    70.00 Ry     beta=0.50
     Davidson diagonalization with overlap
     ethr =  8.45E-06,  avg # of iterations = 10.5

     total cpu time spent up to now is        7.8 secs

     total energy              =    -724.31314129 Ry
     Harris-Foulkes estimate   =    -724.31179668 Ry
     estimated scf accuracy    <       0.00638477 Ry

     total magnetization       =     2.00 Bohr mag/cell
     absolute magnetization    =     2.17 Bohr mag/cell

     iteration #  6     ecut=    70.00 Ry     beta=0.50
     Davidson diagonalization with overlap
     ethr =  2.51E-06,  avg # of iterations =  6.0

     total cpu time spent up to now is        9.1 secs

     total energy              =    -724.31428451 Ry
     Harris-Foulkes estimate   =    -724.31449332 Ry
     estimated scf accuracy    <       0.00093135 Ry

     total magnetization       =     2.00 Bohr mag/cell
     absolute magnetization    =     2.19 Bohr mag/cell

     iteration #  7     ecut=    70.00 Ry     beta=0.50
     Davidson diagonalization with overlap
     ethr =  3.67E-07,  avg # of iterations =  2.5

     total cpu time spent up to now is       10.0 secs

     total energy              =    -724.31455707 Ry
     Harris-Foulkes estimate   =    -724.31450657 Ry
     estimated scf accuracy    <       0.00008607 Ry

     total magnetization       =     2.00 Bohr mag/cell
     absolute magnetization    =     2.20 Bohr mag/cell

     iteration #  8     ecut=    70.00 Ry     beta=0.50
     Davidson diagonalization with overlap
     ethr =  3.39E-08,  avg # of iterations =  3.0

     total cpu time spent up to now is       10.9 secs

     total energy              =    -724.31460314 Ry
     Harris-Foulkes estimate   =    -724.31458146 Ry
     estimated scf accuracy    <       0.00001354 Ry

     total magnetization       =     2.00 Bohr mag/cell
     absolute magnetization    =     2.21 Bohr mag/cell

     iteration #  9     ecut=    70.00 Ry     beta=0.50
     Davidson diagonalization with overlap
     ethr =  5.33E-09,  avg # of iterations =  4.0

     total cpu time spent up to now is       12.0 secs

     total energy              =    -724.31461816 Ry
     Harris-Foulkes estimate   =    -724.31460753 Ry
     estimated scf accuracy    <       0.00000479 Ry

     total magnetization       =     2.00 Bohr mag/cell
     absolute magnetization    =     2.21 Bohr mag/cell

     iteration # 10     ecut=    70.00 Ry     beta=0.50
     Davidson diagonalization with overlap
     ethr =  1.89E-09,  avg # of iterations =  4.5
 
     Magnetic moment per site:
     atom:    1    charge:    1.8298    magn:    0.0054    constr:    0.0000
     atom:    2    charge:    1.8494    magn:    0.0094    constr:    0.0000
     atom:    3    charge:    1.8372    magn:   -0.0016    constr:    0.0000
     atom:    4    charge:    1.8494    magn:    0.0094    constr:    0.0000
     atom:    5    charge:    1.8372    magn:   -0.0016    constr:    0.0000
     atom:    6    charge:    1.8272    magn:    0.0015    constr:    0.0000
     atom:    7    charge:    1.8494    magn:    0.0094    constr:    0.0000
     atom:    8    charge:    1.8302    magn:    0.0005    constr:    0.0000
     atom:    9    charge:    1.8031    magn:    0.0018    constr:    0.0000
     atom:   10    charge:    1.8252    magn:   -0.0009    constr:    0.0000
     atom:   11    charge:    1.8404    magn:   -0.0036    constr:    0.0000
     atom:   12    charge:    1.8252    magn:   -0.0009    constr:    0.0000
     atom:   13    charge:    1.8404    magn:   -0.0036    constr:    0.0000
     atom:   14    charge:    1.8290    magn:   -0.0004    constr:    0.0000
     atom:   15    charge:    1.8372    magn:   -0.0016    constr:    0.0000
     atom:   16    charge:    1.8334    magn:    0.0018    constr:    0.0000
     atom:   17    charge:    1.8404    magn:   -0.0036    constr:    0.0000
     atom:   18    charge:    1.8404    magn:   -0.0036    constr:    0.0000
     atom:   19    charge:    1.8334    magn:    0.0018    constr:    0.0000
     atom:   20    charge:    1.8302    magn:    0.0005    constr:    0.0000
     atom:   21    charge:    1.8252    magn:   -0.0009    constr:    0.0000
     atom:   22    charge:    1.8252    magn:   -0.0009    constr:    0.0000
     atom:   23    charge:    1.8290    magn:   -0.0004    constr:    0.0000
     atom:   24    charge:    1.8031    magn:    0.0018    constr:    0.0000
     atom:   25    charge:    1.8404    magn:   -0.0036    constr:    0.0000
     atom:   26    charge:    1.8302    magn:    0.0005    constr:    0.0000
     atom:   27    charge:    1.8252    magn:   -0.0009    constr:    0.0000
     atom:   28    charge:    1.8404    magn:   -0.0036    constr:    0.0000
     atom:   29    charge:    1.8334    magn:    0.0018    constr:    0.0000
     atom:   30    charge:    1.8031    magn:    0.0018    constr:    0.0000
     atom:   31    charge:    1.8252    magn:   -0.0009    constr:    0.0000
     atom:   32    charge:    1.8303    magn:    0.0073    constr:    0.0000
     atom:   33    charge:    1.8667    magn:    0.1925    constr:    0.0000
     atom:   34    charge:    1.8266    magn:    0.0194    constr:    0.0000
     atom:   35    charge:    1.8298    magn:    0.0054    constr:    0.0000
     atom:   36    charge:    1.8266    magn:    0.0194    constr:    0.0000
     atom:   37    charge:    1.8298    magn:    0.0054    constr:    0.0000
     atom:   38    charge:    1.8337    magn:    0.0048    constr:    0.0000
     atom:   39    charge:    1.8266    magn:    0.0194    constr:    0.0000
     atom:   40    charge:    1.8331    magn:    0.0031    constr:    0.0000
     atom:   41    charge:    1.8358    magn:    0.0112    constr:    0.0000
     atom:   42    charge:    1.8342    magn:    0.0188    constr:    0.0000
     atom:   43    charge:    1.8279    magn:    0.0065    constr:    0.0000
     atom:   44    charge:    1.8342    magn:    0.0188    constr:    0.0000
     atom:   45    charge:    1.8279    magn:    0.0065    constr:    0.0000
     atom:   46    charge:    1.8342    magn:    0.0188    constr:    0.0000
     atom:   47    charge:    1.8303    magn:    0.0073    constr:    0.0000
     atom:   48    charge:    1.8358    magn:    0.0112    constr:    0.0000
     atom:   49    charge:    1.8279    magn:    0.0065    constr:    0.0000
     atom:   50    charge:    1.8279    magn:    0.0065    constr:    0.0000
     atom:   51    charge:    1.8667    magn:    0.1925    constr:    0.0000
     atom:   52    charge:    1.8331    magn:    0.0031    constr:    0.0000
     atom:   53    charge:    1.8342    magn:    0.0188    constr:    0.0000
     atom:   54    charge:    1.8342    magn:    0.0188    constr:    0.0000
     atom:   55    charge:    1.8303    magn:    0.0073    constr:    0.0000
     atom:   56    charge:    1.8358    magn:    0.0112    constr:    0.0000
     atom:   57    charge:    1.8279    magn:    0.0065    constr:    0.0000
     atom:   58    charge:    1.8331    magn:    0.0031    constr:    0.0000
     atom:   59    charge:    1.8342    magn:    0.0188    constr:    0.0000
     atom:   60    charge:    1.8279    magn:    0.0065    constr:    0.0000
     atom:   61    charge:    1.8667    magn:    0.1925    constr:    0.0000
     atom:   62    charge:    1.8290    magn:   -0.0004    constr:    0.0000
     atom:   63    charge:    2.9226    magn:    0.1518    constr:    0.0000

     total cpu time spent up to now is       13.1 secs

     End of self-consistent calculation

 ------ SPIN UP ------------


          k = 0.0000 0.0000 0.0000 ( 24207 PWs)   bands (ev):

    -8.6198  -7.1803  -6.2817  -6.2817  -6.1431  -6.1431  -5.8848  -5.0138
    -4.1466  -4.1466  -4.1174  -4.1174  -4.0028  -4.0028  -3.9929  -3.9523
    -3.8389  -3.8389  -3.3679  -2.9646  -2.6544  -2.6544  -2.0848  -0.3952
    -0.3952  -0.3423  -0.3115  -0.1607   0.1590   0.1590   0.2676   0.2676
     0.3537   0.5880   0.8060   0.8060   0.9809   0.9966   0.9966   1.0402
     1.0402   1.0759   1.3697   1.3697   3.0399   3.8007   3.8007   4.0139
     4.2089   4.2089   4.2157   4.2270   4.2548   4.2548   4.4172   4.4172
     4.4603   4.4603   4.5814   4.6418   4.6418   4.6468   4.6580   4.7418
     4.7418   4.8747   4.9362   4.9362   5.0121   5.1882   5.1882   5.2560
     5.3351   5.3351   5.3811   5.4303   5.4303   6.0087   6.0087   6.0509
     6.6107   6.6107   6.7092   6.9122   7.0029   7.0029   7.5012   8.2661
     8.2661   8.3876   8.4531   8.4531   8.6223   8.6223   8.7829   8.7863
     8.7914   8.7914   8.8782   8.8782   8.8925   9.2596   9.2653   9.2653
     9.6545   9.6545   9.8765   9.8821   9.8821   9.8889   9.9174   9.9363
     9.9363   9.9670   9.9734   9.9734  10.0971  10.0971  10.3121  10.3273
    10.3273  10.5135  12.2434  12.4256  12.4256  13.6127  15.0436  15.0436
    17.2042  17.3232  17.3232  17.4580  17.5313  17.5313  17.8091  17.8932
    17.8932  18.0052  18.0052  18.3286  18.8877  18.8877  18.9571  20.5048
    20.7491  20.7491  20.8215  20.8611  20.8612  20.9625  20.9626  20.9634

     occupation numbers 
     1.0000   1.0000   1.0000   1.0000   1.0000   1.0000   1.0000   1.0000
     1.0000   1.0000   1.0000   1.0000   1.0000   1.0000   1.0000   1.0000
     1.0000   1.0000   1.0000   1.0000   1.0000   1.0000   1.0000   1.0000
     1.0000   1.0000   1.0000   1.0000   1.0000   1.0000   1.0000   1.0000
     1.0000   1.0000   1.0000   1.0000   1.0000   1.0000   1.0000   1.0000
     1.0000   1.0000   1.0000   1.0000   1.0000   1.0000   1.0000   1.0000
     1.0000   1.0000   1.0000   1.0000   1.0000   1.0000   1.0000   1.0000
     1.0000   1.0000   1.0000   1.0000   1.0000   1.0000   1.0000   1.0000
     1.0000   1.0000   1.0000   1.0000   1.0000   1.0000   1.0000   1.0000
     1.0000   1.0000   1.0000   1.0000   1.0000   1.0000   1.0000   1.0000
     1.0000   1.0000   1.0000   1.0000   1.0000   1.0000   1.0000   1.0000
     1.0000   1.0000   1.0000   1.0000   1.0000   1.0000   1.0000   1.0000
     1.0000   1.0000   1.0000   1.0000   1.0000   1.0000   1.0000   1.0000
     1.0000   1.0000   1.0000   1.0000   1.0000   1.0000   1.0000   1.0000
     1.0000   1.0000   1.0000   1.0000   1.0000   1.0000   1.0000   1.0000
     1.0000   1.0000   1.0000   1.0000   1.0000   1.0000   1.0000   1.0000
     0.0000   0.0000   0.0000   0.0000   0.0000   0.0000   0.0000   0.0000
     0.0000   0.0000   0.0000   0.0000   0.0000   0.0000   0.0000   0.0000
     0.0000   0.0000   0.0000   0.0000   0.0000   0.0000   0.0000   0.0000

 ------ SPIN DOWN ----------


          k = 0.0000 0.0000 0.0000 ( 24207 PWs)   bands (ev):

    -8.5768  -7.0896  -6.2609  -6.2609  -6.1089  -6.1089  -5.8486  -4.9615
    -4.1232  -4.1232  -4.0993  -4.0993  -3.9712  -3.9549  -3.9549  -3.9348
    -3.8003  -3.8003  -3.3258  -2.9314  -2.6057  -2.6057  -1.9666  -0.3762
    -0.3762  -0.3219  -0.2764  -0.0833   0.1790   0.1790   0.3008   0.3008
     0.3769   0.6296   0.8236   0.8236   1.0117   1.0238   1.0238   1.0596
     1.0596   1.0906   1.5064   1.5064   3.1490   3.8411   3.8411   4.0524
     4.2348   4.2449   4.2449   4.2717   4.2730   4.2730   4.4439   4.4439
     4.4994   4.4994   4.5999   4.6624   4.6624   4.6730   4.6755   4.7796
     4.7796   4.8979   4.9636   4.9636   5.0987   5.2238   5.2238   5.2935
     5.3476   5.3476   5.3921   5.4797   5.4797   6.0605   6.0605   6.1083
     6.6413   6.6413   6.7346   6.9996   7.0829   7.0829   7.6552   8.3052
     8.3052   8.4324   8.4847   8.4847   8.6622   8.6622   8.8032   8.8155
     8.8155   8.8649   8.9069   8.9197   8.9197   9.2941   9.2941   9.3018
     9.6835   9.6835   9.8910   9.9018   9.9088   9.9088   9.9477   9.9578
     9.9578   9.9960  10.0052  10.0052  10.1311  10.1311  10.3553  10.3844
    10.3844  11.0275  12.5272  12.5272  12.5308  14.3229  16.0336  16.0336
    17.2530  17.3423  17.3423  17.4828  17.5751  17.5751  17.8494  17.9131
    17.9131  18.0403  18.0403  18.4355  18.9603  18.9603  19.0069  20.5795
    20.7660  20.7660  20.8314  20.8871  20.8871  20.9843  20.9845  20.9861

     occupation numbers 
     1.0000   1.0000   1.0000   1.0000   1.0000   1.0000   1.0000   1.0000
     1.0000   1.0000   1.0000   1.0000   1.0000   1.0000   1.0000   1.0000
     1.0000   1.0000   1.0000   1.0000   1.0000   1.0000   1.0000   1.0000
     1.0000   1.0000   1.0000   1.0000   1.0000   1.0000   1.0000   1.0000
     1.0000   1.0000   1.0000   1.0000   1.0000   1.0000   1.0000   1.0000
     1.0000   1.0000   1.0000   1.0000   1.0000   1.0000   1.0000   1.0000
     1.0000   1.0000   1.0000   1.0000   1.0000   1.0000   1.0000   1.0000
     1.0000   1.0000   1.0000   1.0000   1.0000   1.0000   1.0000   1.0000
     1.0000   1.0000   1.0000   1.0000   1.0000   1.0000   1.0000   1.0000
     1.0000   1.0000   1.0000   1.0000   1.0000   1.0000   1.0000   1.0000
     1.0000   1.0000   1.0000   1.0000   1.0000   1.0000   1.0000   1.0000
     1.0000   1.0000   1.0000   1.0000   1.0000   1.0000   1.0000   1.0000
     1.0000   1.0000   1.0000   1.0000   1.0000   1.0000   1.0000   1.0000
     1.0000   1.0000   1.0000   1.0000   1.0000   1.0000   1.0000   1.0000
     1.0000   1.0000   1.0000   1.0000   1.0000   1.0000   1.0000   1.0000
     1.0000   1.0000   1.0000   1.0000   1.0000   0.0000   1.0000   0.0000
     0.0000   0.0000   0.0000   0.0000   0.0000   0.0000   0.0000   0.0000
     0.0000   0.0000   0.0000   0.0000   0.0000   0.0000   0.0000   0.0000
     0.0000   0.0000   0.0000   0.0000   0.0000   0.0000   0.0000   0.0000

     highest occupied, lowest unoccupied level (ev):    15.0436   14.3229

!    total energy              =    -724.31462280 Ry
     Harris-Foulkes estimate   =    -724.31462154 Ry
     estimated scf accuracy    <       0.00000091 Ry

     The total energy is the sum of the following terms:

     one-electron contribution =     232.28991239 Ry
     hartree contribution      =      70.06224325 Ry
     xc contribution           =    -226.64712174 Ry
     ewald contribution        =    -800.01965669 Ry

     total magnetization       =     2.00 Bohr mag/cell
     absolute magnetization    =     2.22 Bohr mag/cell

     convergence has been achieved in  10 iterations

     Writing output data file di.save
 
     init_run     :      0.81s CPU      1.07s WALL (       1 calls)
     electrons    :     10.88s CPU     11.30s WALL (       1 calls)

     Called by init_run:
     wfcinit      :      0.36s CPU      0.42s WALL (       1 calls)
     wfcinit:atom :      0.00s CPU      0.00s WALL (       1 calls)
     wfcinit:wfcr :      0.34s CPU      0.39s WALL (       1 calls)
     potinit      :      0.07s CPU      0.08s WALL (       1 calls)

     Called by electrons:
     c_bands      :      9.79s CPU     10.18s WALL (      10 calls)
     sum_band     :      0.58s CPU      0.59s WALL (      10 calls)
     v_of_rho     :      0.40s CPU      0.41s WALL (      11 calls)
     v_h          :      0.01s CPU      0.01s WALL (      11 calls)
     v_xc         :      0.39s CPU      0.40s WALL (      11 calls)
     mix_rho      :      0.07s CPU      0.08s WALL (      10 calls)

     Called by c_bands:
     init_us_2    :      0.09s CPU      0.10s WALL (      21 calls)
     cegterg      :      9.43s CPU      9.81s WALL (      10 calls)

     Called by sum_band:

     Called by *egterg:
     h_psi        :      4.49s CPU      4.62s WALL (      60 calls)
     g_psi        :      0.03s CPU      0.03s WALL (      49 calls)
     cdiaghg      :      2.95s CPU      3.11s WALL (      59 calls)
     cegterg:over :      0.85s CPU      0.86s WALL (      49 calls)
     cegterg:upda :      0.84s CPU      0.86s WALL (      49 calls)
     cegterg:last :      0.29s CPU      0.29s WALL (      10 calls)
     cdiaghg:chol :      0.24s CPU      0.28s WALL (      59 calls)
     cdiaghg:inve :      0.16s CPU      0.16s WALL (      59 calls)
     cdiaghg:para :      0.23s CPU      0.27s WALL (     118 calls)

     Called by h_psi:
     h_psi:pot    :      4.43s CPU      4.56s WALL (      60 calls)
     h_psi:calbec :      0.96s CPU      0.99s WALL (      60 calls)
     vloc_psi     :      2.49s CPU      2.56s WALL (      60 calls)
     add_vuspsi   :      0.98s CPU      1.01s WALL (      60 calls)

     General routines
     calbec       :      0.96s CPU      0.99s WALL (      60 calls)
     fft          :      0.13s CPU      0.20s WALL (     228 calls)
     fftw         :      2.70s CPU      2.68s WALL (   10202 calls)
 
     Parallel routines
     fft_scatter  :      0.77s CPU      0.80s WALL (   10430 calls)
 
     PWSCF        :    12.31s CPU        13.91s WALL

 
   This run was terminated on:  13:19:25   1Jun2021            

=------------------------------------------------------------------------------=
   JOB DONE.
=------------------------------------------------------------------------------=
