
     Program PWSCF v.6.1 (svn rev. 13369) starts on  8May2020 at 15:11:15 

     This program is part of the open-source Quantum ESPRESSO suite
     for quantum simulation of materials; please cite
         "P. Giannozzi et al., J. Phys.:Condens. Matter 21 395502 (2009);
          URL http://www.quantum-espresso.org", 
     in publications or presentations arising from this work. More details at
     http://www.quantum-espresso.org/quote

     Parallel version (MPI), running on    96 processors
     K-points division:     npool     =       6
     R & G space division:  proc/nbgrp/npool/nimage =      16
     Reading input from relax.in

     Current dimensions of program PWSCF are:
     Max number of different atomic species (ntypx) = 10
     Max number of k-points (npk) =  40000
     Max angular momentum in pseudopotentials (lmaxx) =  3

     Subspace diagonalization in iterative solution of the eigenvalue problem:
     one sub-group per band group will be used
     scalapack distributed-memory algorithm (size of sub-group:  2*  2 procs)

 
     Parallelization info
     --------------------
     sticks:   dense  smooth     PW     G-vecs:    dense   smooth      PW
     Min         252     252     67                12125    12125    1669
     Max         254     254     68                12129    12129    1672
     Sum        4049    4049   1085               194039   194039   26745
 


     bravais-lattice index     =            1
     lattice parameter (alat)  =      13.4862  a.u.
     unit-cell volume          =    2452.8358 (a.u.)^3
     number of atoms/cell      =           63
     number of atomic types    =            2
     number of electrons       =       254.00 (up: 127.00, down: 127.00)
     number of Kohn-Sham states=          152
     kinetic-energy cutoff     =      70.0000  Ry
     charge density cutoff     =     280.0000  Ry
     convergence threshold     =      1.0E-06
     mixing beta               =       0.5000
     number of iterations used =            8  plain     mixing
     Exchange-correlation      = PBE ( 1  4  3  4 0 0)
     nstep                     =           50


     celldm(1)=  13.486197  celldm(2)=   0.000000  celldm(3)=   0.000000
     celldm(4)=   0.000000  celldm(5)=   0.000000  celldm(6)=   0.000000

     crystal axes: (cart. coord. in units of alat)
               a(1) = (   1.000000   0.000000   0.000000 )  
               a(2) = (   0.000000   1.000000   0.000000 )  
               a(3) = (   0.000000   0.000000   1.000000 )  

     reciprocal axes: (cart. coord. in units 2 pi/alat)
               b(1) = (  1.000000  0.000000  0.000000 )  
               b(2) = (  0.000000  1.000000  0.000000 )  
               b(3) = (  0.000000  0.000000  1.000000 )  


     PseudoPot. # 1 for C  read from file:
     /home/tjsmart/Pseudo/C_ONCV_PBE-1.0.upf
     MD5 check sum: 72b63e32b2fd29504de26a4901699f60
     Pseudo is Norm-conserving, Zval =  4.0
     Generated using ONCVPSP code by D. R. Hamann
     Using radial grid of 1248 points,  4 beta functions with: 
                l(1) =   0
                l(2) =   0
                l(3) =   1
                l(4) =   1

     PseudoPot. # 2 for N  read from file:
     /home/tjsmart/Pseudo/N_ONCV_PBE-1.0.upf
     MD5 check sum: 09890da6b2972017450f7114a6086fad
     Pseudo is Norm-conserving, Zval =  5.0
     Generated using ONCVPSP code by D. R. Hamann
     Using radial grid of 1058 points,  4 beta functions with: 
                l(1) =   0
                l(2) =   0
                l(3) =   1
                l(4) =   1

     atomic species   valence    mass     pseudopotential
        C              4.00    12.01110     C ( 1.00)
        N              5.00    14.00670     N ( 1.00)

     Starting magnetic structure 
     atomic species   magnetization
        C            0.200
        N            0.200

      6 Sym. Ops. (no inversion) found


                                    s                        frac. trans.

      isym =  1     identity                                     

 cryst.   s( 1) = (     1          0          0      )
                  (     0          1          0      )
                  (     0          0          1      )

 cart.    s( 1) = (  1.0000000  0.0000000  0.0000000 )
                  (  0.0000000  1.0000000  0.0000000 )
                  (  0.0000000  0.0000000  1.0000000 )


      isym =  2     120 deg rotation - cart. axis [-1,-1,-1]     

 cryst.   s( 2) = (     0          0          1      )
                  (     1          0          0      )
                  (     0          1          0      )

 cart.    s( 2) = (  0.0000000  1.0000000  0.0000000 )
                  (  0.0000000  0.0000000  1.0000000 )
                  (  1.0000000  0.0000000  0.0000000 )


      isym =  3     120 deg rotation - cart. axis [1,1,1]        

 cryst.   s( 3) = (     0          1          0      )
                  (     0          0          1      )
                  (     1          0          0      )

 cart.    s( 3) = (  0.0000000  0.0000000  1.0000000 )
                  (  1.0000000  0.0000000  0.0000000 )
                  (  0.0000000  1.0000000  0.0000000 )


      isym =  4     inv. 180 deg rotation - cart. axis [1,-1,0]  

 cryst.   s( 4) = (     0          1          0      )
                  (     1          0          0      )
                  (     0          0          1      )

 cart.    s( 4) = (  0.0000000  1.0000000  0.0000000 )
                  (  1.0000000  0.0000000  0.0000000 )
                  (  0.0000000  0.0000000  1.0000000 )


      isym =  5     inv. 180 deg rotation - cart. axis [-1,0,1]  

 cryst.   s( 5) = (     0          0          1      )
                  (     0          1          0      )
                  (     1          0          0      )

 cart.    s( 5) = (  0.0000000  0.0000000  1.0000000 )
                  (  0.0000000  1.0000000  0.0000000 )
                  (  1.0000000  0.0000000  0.0000000 )


      isym =  6     inv. 180 deg rotation - cart. axis [0,1,-1]  

 cryst.   s( 6) = (     1          0          0      )
                  (     0          0          1      )
                  (     0          1          0      )

 cart.    s( 6) = (  1.0000000  0.0000000  0.0000000 )
                  (  0.0000000  0.0000000  1.0000000 )
                  (  0.0000000  1.0000000  0.0000000 )


     point group C_3v (3m)  
     there are  3 classes
     the character table:

       E     2C3   3s_v 
A_1    1.00  1.00  1.00
A_2    1.00  1.00 -1.00
E      2.00 -1.00  0.00

     the symmetry operations in each class and the name of the first element:

     E        1
          identity                                               
     2C3      2    3
          120 deg rotation - cart. axis [-1,-1,-1]               
     3s_v     4    5    6
          inv. 180 deg rotation - cart. axis [1,-1,0]            

   Cartesian axes

     site n.     atom                  positions (alat units)
         1           C   tau(   1) = (   0.3750000   0.3750000   0.8750000  )
         2           C   tau(   2) = (   0.5000000   0.0000000   0.0000000  )
         3           C   tau(   3) = (   0.5000000   0.0000000   0.5000000  )
         4           C   tau(   4) = (   0.0000000   0.5000000   0.0000000  )
         5           C   tau(   5) = (   0.0000000   0.5000000   0.5000000  )
         6           C   tau(   6) = (   0.0000000   0.0000000   0.0000000  )
         7           C   tau(   7) = (   0.0000000   0.0000000   0.5000000  )
         8           C   tau(   8) = (   0.2500000   0.2500000   0.0000000  )
         9           C   tau(   9) = (   0.2500000   0.2500000   0.5000000  )
        10           C   tau(  10) = (   0.2500000   0.7500000   0.0000000  )
        11           C   tau(  11) = (   0.2500000   0.7500000   0.5000000  )
        12           C   tau(  12) = (   0.7500000   0.2500000   0.0000000  )
        13           C   tau(  13) = (   0.7500000   0.2500000   0.5000000  )
        14           C   tau(  14) = (   0.7500000   0.7500000   0.0000000  )
        15           C   tau(  15) = (   0.5000000   0.5000000   0.0000000  )
        16           C   tau(  16) = (   0.7500000   0.7500000   0.5000000  )
        17           C   tau(  17) = (   0.5000000   0.2500000   0.7500000  )
        18           C   tau(  18) = (   0.5000000   0.7500000   0.2500000  )
        19           C   tau(  19) = (   0.5000000   0.7500000   0.7500000  )
        20           C   tau(  20) = (   0.0000000   0.2500000   0.2500000  )
        21           C   tau(  21) = (   0.0000000   0.2500000   0.7500000  )
        22           C   tau(  22) = (   0.0000000   0.7500000   0.2500000  )
        23           C   tau(  23) = (   0.0000000   0.7500000   0.7500000  )
        24           C   tau(  24) = (   0.2500000   0.5000000   0.2500000  )
        25           C   tau(  25) = (   0.2500000   0.5000000   0.7500000  )
        26           C   tau(  26) = (   0.2500000   0.0000000   0.2500000  )
        27           C   tau(  27) = (   0.2500000   0.0000000   0.7500000  )
        28           C   tau(  28) = (   0.7500000   0.5000000   0.2500000  )
        29           C   tau(  29) = (   0.7500000   0.5000000   0.7500000  )
        30           C   tau(  30) = (   0.5000000   0.2500000   0.2500000  )
        31           C   tau(  31) = (   0.7500000   0.0000000   0.2500000  )
        32           C   tau(  32) = (   0.6250000   0.8750000   0.6250000  )
        33           C   tau(  33) = (   0.6250000   0.3750000   0.6250000  )
        34           C   tau(  34) = (   0.3750000   0.8750000   0.8750000  )
        35           C   tau(  35) = (   0.3750000   0.8750000   0.3750000  )
        36           C   tau(  36) = (   0.8750000   0.3750000   0.8750000  )
        37           C   tau(  37) = (   0.8750000   0.3750000   0.3750000  )
        38           C   tau(  38) = (   0.8750000   0.8750000   0.8750000  )
        39           C   tau(  39) = (   0.8750000   0.8750000   0.3750000  )
        40           C   tau(  40) = (   0.1250000   0.1250000   0.8750000  )
        41           C   tau(  41) = (   0.1250000   0.1250000   0.3750000  )
        42           C   tau(  42) = (   0.1250000   0.6250000   0.8750000  )
        43           C   tau(  43) = (   0.1250000   0.6250000   0.3750000  )
        44           C   tau(  44) = (   0.6250000   0.1250000   0.8750000  )
        45           C   tau(  45) = (   0.6250000   0.1250000   0.3750000  )
        46           C   tau(  46) = (   0.6250000   0.8750000   0.1250000  )
        47           C   tau(  47) = (   0.6250000   0.6250000   0.8750000  )
        48           C   tau(  48) = (   0.3750000   0.1250000   0.1250000  )
        49           C   tau(  49) = (   0.3750000   0.1250000   0.6250000  )
        50           C   tau(  50) = (   0.3750000   0.6250000   0.1250000  )
        51           C   tau(  51) = (   0.3750000   0.6250000   0.6250000  )
        52           C   tau(  52) = (   0.8750000   0.1250000   0.1250000  )
        53           C   tau(  53) = (   0.8750000   0.1250000   0.6250000  )
        54           C   tau(  54) = (   0.8750000   0.6250000   0.1250000  )
        55           C   tau(  55) = (   0.8750000   0.6250000   0.6250000  )
        56           C   tau(  56) = (   0.1250000   0.3750000   0.1250000  )
        57           C   tau(  57) = (   0.1250000   0.3750000   0.6250000  )
        58           C   tau(  58) = (   0.1250000   0.8750000   0.1250000  )
        59           C   tau(  59) = (   0.1250000   0.8750000   0.6250000  )
        60           C   tau(  60) = (   0.6250000   0.3750000   0.1250000  )
        61           C   tau(  61) = (   0.6250000   0.6250000   0.3750000  )
        62           C   tau(  62) = (   0.7500000   0.0000000   0.7500000  )
        63           N   tau(  63) = (   0.3750000   0.3750000   0.3750000  )

   Crystallographic axes

     site n.     atom                  positions (cryst. coord.)
         1           C   tau(   1) = (  0.3750000  0.3750000  0.8750000  )
         2           C   tau(   2) = (  0.5000000  0.0000000  0.0000000  )
         3           C   tau(   3) = (  0.5000000  0.0000000  0.5000000  )
         4           C   tau(   4) = (  0.0000000  0.5000000  0.0000000  )
         5           C   tau(   5) = (  0.0000000  0.5000000  0.5000000  )
         6           C   tau(   6) = (  0.0000000  0.0000000  0.0000000  )
         7           C   tau(   7) = (  0.0000000  0.0000000  0.5000000  )
         8           C   tau(   8) = (  0.2500000  0.2500000  0.0000000  )
         9           C   tau(   9) = (  0.2500000  0.2500000  0.5000000  )
        10           C   tau(  10) = (  0.2500000  0.7500000  0.0000000  )
        11           C   tau(  11) = (  0.2500000  0.7500000  0.5000000  )
        12           C   tau(  12) = (  0.7500000  0.2500000  0.0000000  )
        13           C   tau(  13) = (  0.7500000  0.2500000  0.5000000  )
        14           C   tau(  14) = (  0.7500000  0.7500000  0.0000000  )
        15           C   tau(  15) = (  0.5000000  0.5000000  0.0000000  )
        16           C   tau(  16) = (  0.7500000  0.7500000  0.5000000  )
        17           C   tau(  17) = (  0.5000000  0.2500000  0.7500000  )
        18           C   tau(  18) = (  0.5000000  0.7500000  0.2500000  )
        19           C   tau(  19) = (  0.5000000  0.7500000  0.7500000  )
        20           C   tau(  20) = (  0.0000000  0.2500000  0.2500000  )
        21           C   tau(  21) = (  0.0000000  0.2500000  0.7500000  )
        22           C   tau(  22) = (  0.0000000  0.7500000  0.2500000  )
        23           C   tau(  23) = (  0.0000000  0.7500000  0.7500000  )
        24           C   tau(  24) = (  0.2500000  0.5000000  0.2500000  )
        25           C   tau(  25) = (  0.2500000  0.5000000  0.7500000  )
        26           C   tau(  26) = (  0.2500000  0.0000000  0.2500000  )
        27           C   tau(  27) = (  0.2500000  0.0000000  0.7500000  )
        28           C   tau(  28) = (  0.7500000  0.5000000  0.2500000  )
        29           C   tau(  29) = (  0.7500000  0.5000000  0.7500000  )
        30           C   tau(  30) = (  0.5000000  0.2500000  0.2500000  )
        31           C   tau(  31) = (  0.7500000  0.0000000  0.2500000  )
        32           C   tau(  32) = (  0.6250000  0.8750000  0.6250000  )
        33           C   tau(  33) = (  0.6250000  0.3750000  0.6250000  )
        34           C   tau(  34) = (  0.3750000  0.8750000  0.8750000  )
        35           C   tau(  35) = (  0.3750000  0.8750000  0.3750000  )
        36           C   tau(  36) = (  0.8750000  0.3750000  0.8750000  )
        37           C   tau(  37) = (  0.8750000  0.3750000  0.3750000  )
        38           C   tau(  38) = (  0.8750000  0.8750000  0.8750000  )
        39           C   tau(  39) = (  0.8750000  0.8750000  0.3750000  )
        40           C   tau(  40) = (  0.1250000  0.1250000  0.8750000  )
        41           C   tau(  41) = (  0.1250000  0.1250000  0.3750000  )
        42           C   tau(  42) = (  0.1250000  0.6250000  0.8750000  )
        43           C   tau(  43) = (  0.1250000  0.6250000  0.3750000  )
        44           C   tau(  44) = (  0.6250000  0.1250000  0.8750000  )
        45           C   tau(  45) = (  0.6250000  0.1250000  0.3750000  )
        46           C   tau(  46) = (  0.6250000  0.8750000  0.1250000  )
        47           C   tau(  47) = (  0.6250000  0.6250000  0.8750000  )
        48           C   tau(  48) = (  0.3750000  0.1250000  0.1250000  )
        49           C   tau(  49) = (  0.3750000  0.1250000  0.6250000  )
        50           C   tau(  50) = (  0.3750000  0.6250000  0.1250000  )
        51           C   tau(  51) = (  0.3750000  0.6250000  0.6250000  )
        52           C   tau(  52) = (  0.8750000  0.1250000  0.1250000  )
        53           C   tau(  53) = (  0.8750000  0.1250000  0.6250000  )
        54           C   tau(  54) = (  0.8750000  0.6250000  0.1250000  )
        55           C   tau(  55) = (  0.8750000  0.6250000  0.6250000  )
        56           C   tau(  56) = (  0.1250000  0.3750000  0.1250000  )
        57           C   tau(  57) = (  0.1250000  0.3750000  0.6250000  )
        58           C   tau(  58) = (  0.1250000  0.8750000  0.1250000  )
        59           C   tau(  59) = (  0.1250000  0.8750000  0.6250000  )
        60           C   tau(  60) = (  0.6250000  0.3750000  0.1250000  )
        61           C   tau(  61) = (  0.6250000  0.6250000  0.3750000  )
        62           C   tau(  62) = (  0.7500000  0.0000000  0.7500000  )
        63           N   tau(  63) = (  0.3750000  0.3750000  0.3750000  )

     number of k points=     6  Marzari-Vanderbilt smearing, width (Ry)=  0.0010
                       cart. coord. in units 2pi/alat
        k(    1) = (   0.0000000   0.0000000   0.0000000), wk =   0.0370370
        k(    2) = (   0.0000000   0.0000000   0.3333333), wk =   0.2222222
        k(    3) = (   0.0000000   0.3333333   0.3333333), wk =   0.2222222
        k(    4) = (   0.3333333   0.3333333   0.3333333), wk =   0.0740741
        k(    5) = (  -0.3333333   0.0000000   0.3333333), wk =   0.2222222
        k(    6) = (   0.3333333  -0.3333333   0.3333333), wk =   0.2222222

                       cryst. coord.
        k(    1) = (   0.0000000   0.0000000   0.0000000), wk =   0.0370370
        k(    2) = (   0.0000000   0.0000000   0.3333333), wk =   0.2222222
        k(    3) = (   0.0000000   0.3333333   0.3333333), wk =   0.2222222
        k(    4) = (   0.3333333   0.3333333   0.3333333), wk =   0.0740741
        k(    5) = (  -0.3333333   0.0000000   0.3333333), wk =   0.2222222
        k(    6) = (   0.3333333  -0.3333333   0.3333333), wk =   0.2222222

     Dense  grid:   194039 G-vectors     FFT dimensions: (  72,  72,  72)

     Estimated max dynamical RAM per process >      51.77MB

     Estimated total allocated dynamical RAM >    4970.31MB
     Generating pointlists ...
     new r_m :   0.0893 (alat units)  1.2044 (a.u.) for type    1
     new r_m :   0.0893 (alat units)  1.2044 (a.u.) for type    2

     Initial potential from superposition of free atoms

     starting charge  252.99722, renormalised to  254.00000
     Starting wfc are  252 randomized atomic wfcs

     total cpu time spent up to now is        4.0 secs

     per-process dynamical memory:    60.4 Mb

     Self-consistent Calculation

     iteration #  1     ecut=    70.00 Ry     beta=0.50
     Davidson diagonalization with overlap
     ethr =  1.00E-02,  avg # of iterations =  3.0

     total cpu time spent up to now is        6.4 secs

     total energy              =    -724.30830863 Ry
     Harris-Foulkes estimate   =    -724.68706864 Ry
     estimated scf accuracy    <       4.11595331 Ry

     total magnetization       =    -0.00 Bohr mag/cell
     absolute magnetization    =     0.90 Bohr mag/cell

     iteration #  2     ecut=    70.00 Ry     beta=0.50
     Davidson diagonalization with overlap
     ethr =  1.62E-03,  avg # of iterations =  2.1

     total cpu time spent up to now is        8.0 secs

     total energy              =    -724.62046031 Ry
     Harris-Foulkes estimate   =    -724.52168540 Ry
     estimated scf accuracy    <       0.65245860 Ry

     total magnetization       =    -0.00 Bohr mag/cell
     absolute magnetization    =     0.34 Bohr mag/cell

     iteration #  3     ecut=    70.00 Ry     beta=0.50
     Davidson diagonalization with overlap
     ethr =  2.57E-04,  avg # of iterations =  9.4

     total cpu time spent up to now is       12.7 secs

     total energy              =    -724.68471622 Ry
     Harris-Foulkes estimate   =    -724.71836997 Ry
     estimated scf accuracy    <       0.12379053 Ry

     total magnetization       =    -0.00 Bohr mag/cell
     absolute magnetization    =     0.11 Bohr mag/cell

     iteration #  4     ecut=    70.00 Ry     beta=0.50
     Davidson diagonalization with overlap
     ethr =  4.87E-05,  avg # of iterations =  7.7

     total cpu time spent up to now is       17.0 secs

     total energy              =    -724.71707000 Ry
     Harris-Foulkes estimate   =    -724.71432293 Ry
     estimated scf accuracy    <       0.01153782 Ry

     total magnetization       =     0.00 Bohr mag/cell
     absolute magnetization    =     0.07 Bohr mag/cell

     iteration #  5     ecut=    70.00 Ry     beta=0.50
     Davidson diagonalization with overlap
     ethr =  4.54E-06,  avg # of iterations =  9.0

     total cpu time spent up to now is       23.2 secs

     total energy              =    -724.71982741 Ry
     Harris-Foulkes estimate   =    -724.71983800 Ry
     estimated scf accuracy    <       0.00164728 Ry

     total magnetization       =    -0.00 Bohr mag/cell
     absolute magnetization    =     0.03 Bohr mag/cell

     iteration #  6     ecut=    70.00 Ry     beta=0.50
     Davidson diagonalization with overlap
     ethr =  6.49E-07,  avg # of iterations =  5.2

     total cpu time spent up to now is       26.1 secs

     total energy              =    -724.72006281 Ry
     Harris-Foulkes estimate   =    -724.72013103 Ry
     estimated scf accuracy    <       0.00023017 Ry

     total magnetization       =    -0.00 Bohr mag/cell
     absolute magnetization    =     0.02 Bohr mag/cell

     iteration #  7     ecut=    70.00 Ry     beta=0.50
     Davidson diagonalization with overlap
     ethr =  9.06E-08,  avg # of iterations =  3.0

     total cpu time spent up to now is       28.2 secs

     total energy              =    -724.72012849 Ry
     Harris-Foulkes estimate   =    -724.72013237 Ry
     estimated scf accuracy    <       0.00002403 Ry

     total magnetization       =     0.00 Bohr mag/cell
     absolute magnetization    =     0.01 Bohr mag/cell

     iteration #  8     ecut=    70.00 Ry     beta=0.50
     Davidson diagonalization with overlap
     ethr =  9.46E-09,  avg # of iterations =  3.0

     total cpu time spent up to now is       30.2 secs

     total energy              =    -724.72013486 Ry
     Harris-Foulkes estimate   =    -724.72013476 Ry
     estimated scf accuracy    <       0.00000270 Ry

     total magnetization       =    -0.00 Bohr mag/cell
     absolute magnetization    =     0.01 Bohr mag/cell

     iteration #  9     ecut=    70.00 Ry     beta=0.50
     Davidson diagonalization with overlap
     ethr =  1.06E-09,  avg # of iterations =  3.7
 
     Magnetic moment per site:
     atom:    1    charge:    2.0250    magn:    0.0000    constr:    0.0000
     atom:    2    charge:    2.0273    magn:   -0.0000    constr:    0.0000
     atom:    3    charge:    2.0243    magn:    0.0000    constr:    0.0000
     atom:    4    charge:    2.0273    magn:   -0.0000    constr:    0.0000
     atom:    5    charge:    2.0243    magn:    0.0000    constr:    0.0000
     atom:    6    charge:    2.0264    magn:    0.0000    constr:    0.0000
     atom:    7    charge:    2.0273    magn:   -0.0000    constr:    0.0000
     atom:    8    charge:    2.0267    magn:    0.0000    constr:    0.0000
     atom:    9    charge:    1.9813    magn:   -0.0002    constr:    0.0000
     atom:   10    charge:    2.0255    magn:    0.0000    constr:    0.0000
     atom:   11    charge:    2.0162    magn:    0.0000    constr:    0.0000
     atom:   12    charge:    2.0255    magn:    0.0000    constr:    0.0000
     atom:   13    charge:    2.0162    magn:    0.0000    constr:    0.0000
     atom:   14    charge:    2.0265    magn:    0.0000    constr:    0.0000
     atom:   15    charge:    2.0243    magn:    0.0000    constr:    0.0000
     atom:   16    charge:    2.0178    magn:    0.0000    constr:    0.0000
     atom:   17    charge:    2.0162    magn:    0.0000    constr:    0.0000
     atom:   18    charge:    2.0162    magn:    0.0000    constr:    0.0000
     atom:   19    charge:    2.0178    magn:    0.0000    constr:    0.0000
     atom:   20    charge:    2.0267    magn:    0.0000    constr:    0.0000
     atom:   21    charge:    2.0255    magn:    0.0000    constr:    0.0000
     atom:   22    charge:    2.0255    magn:    0.0000    constr:    0.0000
     atom:   23    charge:    2.0265    magn:    0.0000    constr:    0.0000
     atom:   24    charge:    1.9813    magn:   -0.0002    constr:    0.0000
     atom:   25    charge:    2.0162    magn:    0.0000    constr:    0.0000
     atom:   26    charge:    2.0267    magn:    0.0000    constr:    0.0000
     atom:   27    charge:    2.0255    magn:    0.0000    constr:    0.0000
     atom:   28    charge:    2.0162    magn:    0.0000    constr:    0.0000
     atom:   29    charge:    2.0178    magn:    0.0000    constr:    0.0000
     atom:   30    charge:    1.9813    magn:   -0.0002    constr:    0.0000
     atom:   31    charge:    2.0255    magn:    0.0000    constr:    0.0000
     atom:   32    charge:    2.0242    magn:    0.0000    constr:    0.0000
     atom:   33    charge:    1.9500    magn:    0.0000    constr:    0.0000
     atom:   34    charge:    2.0253    magn:    0.0000    constr:    0.0000
     atom:   35    charge:    2.0250    magn:    0.0000    constr:    0.0000
     atom:   36    charge:    2.0253    magn:    0.0000    constr:    0.0000
     atom:   37    charge:    2.0250    magn:    0.0000    constr:    0.0000
     atom:   38    charge:    2.0259    magn:    0.0000    constr:    0.0000
     atom:   39    charge:    2.0253    magn:    0.0000    constr:    0.0000
     atom:   40    charge:    2.0261    magn:    0.0000    constr:    0.0000
     atom:   41    charge:    2.0294    magn:    0.0000    constr:    0.0000
     atom:   42    charge:    2.0256    magn:    0.0000    constr:    0.0000
     atom:   43    charge:    2.0254    magn:    0.0000    constr:    0.0000
     atom:   44    charge:    2.0256    magn:    0.0000    constr:    0.0000
     atom:   45    charge:    2.0254    magn:    0.0000    constr:    0.0000
     atom:   46    charge:    2.0256    magn:    0.0000    constr:    0.0000
     atom:   47    charge:    2.0242    magn:    0.0000    constr:    0.0000
     atom:   48    charge:    2.0294    magn:    0.0000    constr:    0.0000
     atom:   49    charge:    2.0254    magn:    0.0000    constr:    0.0000
     atom:   50    charge:    2.0254    magn:    0.0000    constr:    0.0000
     atom:   51    charge:    1.9500    magn:    0.0000    constr:    0.0000
     atom:   52    charge:    2.0261    magn:    0.0000    constr:    0.0000
     atom:   53    charge:    2.0256    magn:    0.0000    constr:    0.0000
     atom:   54    charge:    2.0256    magn:    0.0000    constr:    0.0000
     atom:   55    charge:    2.0242    magn:    0.0000    constr:    0.0000
     atom:   56    charge:    2.0294    magn:    0.0000    constr:    0.0000
     atom:   57    charge:    2.0254    magn:    0.0000    constr:    0.0000
     atom:   58    charge:    2.0261    magn:    0.0000    constr:    0.0000
     atom:   59    charge:    2.0256    magn:    0.0000    constr:    0.0000
     atom:   60    charge:    2.0254    magn:    0.0000    constr:    0.0000
     atom:   61    charge:    1.9500    magn:    0.0000    constr:    0.0000
     atom:   62    charge:    2.0265    magn:    0.0000    constr:    0.0000
     atom:   63    charge:    3.0667    magn:    0.0008    constr:    0.0000

     total cpu time spent up to now is       32.6 secs

     End of self-consistent calculation

 ------ SPIN UP ------------


          k = 0.0000 0.0000 0.0000 ( 24207 PWs)   bands (ev):

    -8.4886  -6.5888  -6.2597  -6.2597  -6.1630  -6.1630  -5.8559  -4.6977
    -4.1056  -4.1056  -4.0744  -4.0744  -4.0656  -4.0058  -4.0058  -3.9548
    -3.7911  -3.7911  -3.3517  -2.9367  -2.6155  -2.6155  -1.9150  -0.3719
    -0.3238  -0.3238  -0.2840  -0.0023   0.2084   0.2084   0.2737   0.2737
     0.3419   0.6122   0.9135   0.9135   0.9304   0.9764   0.9764   1.0509
     1.0597   1.0597   1.4715   1.4715   2.9724   4.0527   4.1545   4.1545
     4.2207   4.2207   4.2375   4.2871   4.2908   4.2908   4.4169   4.4169
     4.5361   4.5361   4.5818   4.6384   4.6384   4.6738   4.6977   4.7509
     4.7509   4.8280   4.8582   4.8582   5.1607   5.3029   5.3029   5.3412
     5.3412   5.3531   5.3630   5.4995   5.4995   5.9938   5.9938   6.0090
     6.6420   6.6420   6.7097   7.0722   7.1100   7.1100   7.3040   8.3886
     8.3886   8.4012   8.4955   8.4955   8.6982   8.6982   8.7819   8.7819
     8.8000   8.8466   8.9419   8.9419   8.9707   9.2525   9.2525   9.2956
     9.8464   9.8464   9.8631   9.8744   9.8777   9.8777   9.9347   9.9347
     9.9411   9.9411   9.9496   9.9639  10.1134  10.1134  10.3507  10.3854
    10.3854  10.5397  12.2982  12.4706  12.4706  13.9684  15.3709  15.3709
    17.1545  17.3674  17.3674  17.4809  17.4834  17.4834  17.6952  17.8801
    17.8801  17.9606  17.9606  18.2948  18.7384  18.7384  18.8273  20.4357
    20.8126  20.8126  20.8684  20.8696  20.8697  20.9319  20.9320  20.9780

     occupation numbers 
     1.0000   1.0000   1.0000   1.0000   1.0000   1.0000   1.0000   1.0000
     1.0000   1.0000   1.0000   1.0000   1.0000   1.0000   1.0000   1.0000
     1.0000   1.0000   1.0000   1.0000   1.0000   1.0000   1.0000   1.0000
     1.0000   1.0000   1.0000   1.0000   1.0000   1.0000   1.0000   1.0000
     1.0000   1.0000   1.0000   1.0000   1.0000   1.0000   1.0000   1.0000
     1.0000   1.0000   1.0000   1.0000   1.0000   1.0000   1.0000   1.0000
     1.0000   1.0000   1.0000   1.0000   1.0000   1.0000   1.0000   1.0000
     1.0000   1.0000   1.0000   1.0000   1.0000   1.0000   1.0000   1.0000
     1.0000   1.0000   1.0000   1.0000   1.0000   1.0000   1.0000   1.0000
     1.0000   1.0000   1.0000   1.0000   1.0000   1.0000   1.0000   1.0000
     1.0000   1.0000   1.0000   1.0000   1.0000   1.0000   1.0000   1.0000
     1.0000   1.0000   1.0000   1.0000   1.0000   1.0000   1.0000   1.0000
     1.0000   1.0000   1.0000   1.0000   1.0000   1.0000   1.0000   1.0000
     1.0000   1.0000   1.0000   1.0000   1.0000   1.0000   1.0000   1.0000
     1.0000   1.0000   1.0000   1.0000   1.0000   1.0000   1.0000   1.0000
     1.0000   1.0000   1.0000   1.0000   1.0000   1.0000   0.0000   0.0000
     0.0000   0.0000   0.0000   0.0000   0.0000   0.0000   0.0000   0.0000
     0.0000   0.0000   0.0000   0.0000   0.0000   0.0000   0.0000   0.0000
     0.0000   0.0000   0.0000   0.0000   0.0000   0.0000   0.0000   0.0000

          k = 0.0000 0.0000 0.3333 ( 24280 PWs)   bands (ev):

    -8.2481  -7.4655  -6.2583  -6.0152  -5.9311  -5.8045  -5.4144  -5.2711
    -5.1445  -4.9081  -4.4659  -4.0510  -3.7825  -3.7640  -3.6515  -3.4092
    -3.1447  -3.1016  -2.8742  -2.5471  -2.4854  -2.3478  -2.2468  -1.7123
    -0.7341  -0.6694  -0.5597  -0.2614   0.2358   0.3383   0.3699   0.4087
     0.5126   0.6036   0.6125   0.6802   0.7767   0.7819   1.0520   1.5051
     2.0362   2.0643   2.1952   2.2990   2.4576   2.5422   2.5430   2.7397
     3.0117   3.0473   3.2234   3.2413   3.9782   4.0224   4.0858   4.0917
     4.3426   4.3589   4.5610   4.5765   5.0065   5.1698   5.1923   5.2375
     5.2482   5.6657   5.6733   5.8128   5.8242   6.1330   6.1424   6.2180
     6.2353   6.3744   6.4197   6.4719   6.5410   6.5742   6.7059   6.7707
     6.7919   6.9144   7.0191   7.0537   7.1919   7.2091   7.2740   7.2966
     7.4629   7.5063   7.7268   7.8029   7.9096   8.1262   8.2018   8.3276
     8.3864   8.4757   8.7418   8.7645   8.7776   9.0290   9.2734   9.3906
     9.4008   9.6724   9.7120   9.8037   9.8962   9.9181   9.9211   9.9342
     9.9400  10.0451  10.1357  10.1413  10.2704  10.3391  10.3738  10.4165
    10.4582  11.0829  11.7616  11.7658  11.9934  13.6378  15.0553  15.1495
    17.1402  17.2833  17.9166  18.2507  18.3882  18.4875  18.4903  18.5439
    18.7187  18.8492  18.9523  19.0262  19.1780  19.7526  19.8054  20.3780
    20.6814  20.7246  20.7842  20.8000  20.8584  20.8686  20.9372  20.9459

     occupation numbers 
     1.0000   1.0000   1.0000   1.0000   1.0000   1.0000   1.0000   1.0000
     1.0000   1.0000   1.0000   1.0000   1.0000   1.0000   1.0000   1.0000
     1.0000   1.0000   1.0000   1.0000   1.0000   1.0000   1.0000   1.0000
     1.0000   1.0000   1.0000   1.0000   1.0000   1.0000   1.0000   1.0000
     1.0000   1.0000   1.0000   1.0000   1.0000   1.0000   1.0000   1.0000
     1.0000   1.0000   1.0000   1.0000   1.0000   1.0000   1.0000   1.0000
     1.0000   1.0000   1.0000   1.0000   1.0000   1.0000   1.0000   1.0000
     1.0000   1.0000   1.0000   1.0000   1.0000   1.0000   1.0000   1.0000
     1.0000   1.0000   1.0000   1.0000   1.0000   1.0000   1.0000   1.0000
     1.0000   1.0000   1.0000   1.0000   1.0000   1.0000   1.0000   1.0000
     1.0000   1.0000   1.0000   1.0000   1.0000   1.0000   1.0000   1.0000
     1.0000   1.0000   1.0000   1.0000   1.0000   1.0000   1.0000   1.0000
     1.0000   1.0000   1.0000   1.0000   1.0000   1.0000   1.0000   1.0000
     1.0000   1.0000   1.0000   1.0000   1.0000   1.0000   1.0000   1.0000
     1.0000   1.0000   1.0000   1.0000   1.0000   1.0000   1.0000   1.0000
     1.0000   1.0000   1.0000   1.0000   1.0000   1.0000   1.0000   0.0000
     0.0000   0.0000   0.0000   0.0000   0.0000   0.0000   0.0000   0.0000
     0.0000   0.0000   0.0000   0.0000   0.0000   0.0000   0.0000   0.0000
     0.0000   0.0000   0.0000   0.0000   0.0000   0.0000   0.0000   0.0000

          k = 0.0000 0.3333 0.3333 ( 24236 PWs)   bands (ev):

    -8.0127  -7.2300  -7.2147  -6.4677  -5.8334  -5.6465  -5.1966  -5.0044
    -4.9638  -4.8300  -4.4042  -4.2466  -4.1864  -3.8817  -3.4693  -3.4666
    -2.6584  -2.3852  -2.3059  -2.2936  -2.1617  -2.1420  -1.9799  -1.8543
    -1.4527  -1.2650  -1.0421  -0.8519  -0.4412   0.0300   0.1054   0.1691
     0.2361   0.4984   0.7491   1.2280   1.2356   1.3327   1.4042   1.4476
     1.5234   1.5257   1.9620   2.0704   2.2058   2.4352   2.7502   2.8753
     3.0731   3.5242   3.6992   3.7287   3.8418   3.9442   3.9490   4.1306
     4.1377   4.5149   4.7018   4.8724   5.0774   5.1651   5.1871   5.3660
     5.4225   5.6113   5.6805   5.7064   5.8638   6.0750   6.0951   6.1350
     6.1829   6.2507   6.3329   6.5089   6.5379   6.6267   6.6440   6.9455
     6.9532   7.0490   7.0831   7.0882   7.2541   7.3444   7.5678   7.7233
     7.9186   7.9794   8.0876   8.0891   8.1634   8.2770   8.3042   8.4197
     8.4227   8.5065   8.5892   8.6978   8.7490   8.7789   8.9344   8.9552
     9.1007   9.2245   9.2610   9.2920   9.4789   9.5471   9.6655   9.6860
     9.8159   9.8327   9.9623  10.0652  10.1246  10.1965  10.4858  10.7042
    11.0122  11.2292  11.5249  11.6228  12.2590  13.4446  14.9239  15.2603
    17.9440  18.2185  18.2416  18.2965  18.3400  18.7993  18.8853  18.9366
    19.1102  19.1684  19.4444  19.4921  19.6372  19.8525  19.9313  19.9770
    20.1649  20.4766  20.5283  20.5466  20.5667  20.6025  20.6151  20.6904

     occupation numbers 
     1.0000   1.0000   1.0000   1.0000   1.0000   1.0000   1.0000   1.0000
     1.0000   1.0000   1.0000   1.0000   1.0000   1.0000   1.0000   1.0000
     1.0000   1.0000   1.0000   1.0000   1.0000   1.0000   1.0000   1.0000
     1.0000   1.0000   1.0000   1.0000   1.0000   1.0000   1.0000   1.0000
     1.0000   1.0000   1.0000   1.0000   1.0000   1.0000   1.0000   1.0000
     1.0000   1.0000   1.0000   1.0000   1.0000   1.0000   1.0000   1.0000
     1.0000   1.0000   1.0000   1.0000   1.0000   1.0000   1.0000   1.0000
     1.0000   1.0000   1.0000   1.0000   1.0000   1.0000   1.0000   1.0000
     1.0000   1.0000   1.0000   1.0000   1.0000   1.0000   1.0000   1.0000
     1.0000   1.0000   1.0000   1.0000   1.0000   1.0000   1.0000   1.0000
     1.0000   1.0000   1.0000   1.0000   1.0000   1.0000   1.0000   1.0000
     1.0000   1.0000   1.0000   1.0000   1.0000   1.0000   1.0000   1.0000
     1.0000   1.0000   1.0000   1.0000   1.0000   1.0000   1.0000   1.0000
     1.0000   1.0000   1.0000   1.0000   1.0000   1.0000   1.0000   1.0000
     1.0000   1.0000   1.0000   1.0000   1.0000   1.0000   1.0000   1.0000
     1.0000   1.0000   1.0000   1.0000   1.0000   1.0000   1.0000   0.0000
     0.0000   0.0000   0.0000   0.0000   0.0000   0.0000   0.0000   0.0000
     0.0000   0.0000   0.0000   0.0000   0.0000   0.0000   0.0000   0.0000
     0.0000   0.0000   0.0000   0.0000   0.0000   0.0000   0.0000   0.0000

          k = 0.3333 0.3333 0.3333 ( 24303 PWs)   bands (ev):

    -7.7835  -7.0159  -6.9702  -6.9702  -6.1981  -6.1981  -6.1831  -5.3522
    -4.0265  -4.0265  -4.0201  -3.4202  -3.3634  -3.3492  -3.3492  -3.2347
    -3.2347  -2.8652  -2.6054  -2.6054  -1.9258  -1.8883  -1.8883  -1.5446
    -1.4564  -1.4564  -1.3903  -1.3725  -1.3725  -1.0323  -1.0323   0.1249
     0.8989   0.8989   1.0330   1.0479   1.0479   1.3321   1.8833   1.8833
     1.8872   1.9390   2.0440   2.0440   2.6159   2.6866   2.6866   2.7410
     2.7410   2.7682   3.1896   3.1896   3.6025   4.1040   4.3435   4.3435
     4.8211   4.9828   4.9828   5.0035   5.0924   5.0924   5.1243   5.3909
     5.3909   5.4736   5.5573   5.5573   5.6622   5.6781   5.6781   6.3865
     6.8852   6.8852   6.9556   6.9889   6.9889   6.9922   7.1695   7.1695
     7.2270   7.2370   7.2370   7.2813   7.3150   7.3150   7.3828   7.4208
     7.4208   7.5584   7.7445   7.7445   7.9452   7.9471   7.9471   8.0111
     8.2475   8.2475   8.3465   8.3465   8.3524   8.4511   8.5567   8.5567
     8.7544   8.7544   8.9527   9.0937   9.2047   9.5958   9.5958   9.8791
     9.8791  10.4959  10.5279  10.5412  10.5412  10.9851  10.9851  11.0140
    11.3259  11.3597  11.3597  11.7096  11.7096  13.3852  15.2211  15.2211
    17.9473  18.2744  18.2744  18.4481  18.6235  18.6235  19.1888  19.3936
    19.3936  19.5869  19.5869  19.6138  19.6138  19.6330  19.6515  19.7326
    19.7326  19.8097  19.9255  19.9255  20.0435  20.0443  20.0444  20.1808

     occupation numbers 
     1.0000   1.0000   1.0000   1.0000   1.0000   1.0000   1.0000   1.0000
     1.0000   1.0000   1.0000   1.0000   1.0000   1.0000   1.0000   1.0000
     1.0000   1.0000   1.0000   1.0000   1.0000   1.0000   1.0000   1.0000
     1.0000   1.0000   1.0000   1.0000   1.0000   1.0000   1.0000   1.0000
     1.0000   1.0000   1.0000   1.0000   1.0000   1.0000   1.0000   1.0000
     1.0000   1.0000   1.0000   1.0000   1.0000   1.0000   1.0000   1.0000
     1.0000   1.0000   1.0000   1.0000   1.0000   1.0000   1.0000   1.0000
     1.0000   1.0000   1.0000   1.0000   1.0000   1.0000   1.0000   1.0000
     1.0000   1.0000   1.0000   1.0000   1.0000   1.0000   1.0000   1.0000
     1.0000   1.0000   1.0000   1.0000   1.0000   1.0000   1.0000   1.0000
     1.0000   1.0000   1.0000   1.0000   1.0000   1.0000   1.0000   1.0000
     1.0000   1.0000   1.0000   1.0000   1.0000   1.0000   1.0000   1.0000
     1.0000   1.0000   1.0000   1.0000   1.0000   1.0000   1.0000   1.0000
     1.0000   1.0000   1.0000   1.0000   1.0000   1.0000   1.0000   1.0000
     1.0000   1.0000   1.0000   1.0000   1.0000   1.0000   1.0000   1.0000
     1.0000   1.0000   1.0000   1.0000   1.0000   1.0000   0.0000   0.0000
     0.0000   0.0000   0.0000   0.0000   0.0000   0.0000   0.0000   0.0000
     0.0000   0.0000   0.0000   0.0000   0.0000   0.0000   0.0000   0.0000
     0.0000   0.0000   0.0000   0.0000   0.0000   0.0000   0.0000   0.0000

          k =-0.3333 0.0000 0.3333 ( 24236 PWs)   bands (ev):

    -8.0033  -7.3571  -7.0946  -6.4400  -5.8558  -5.6640  -5.2636  -5.0044
    -4.8896  -4.7422  -4.4627  -4.2402  -4.1525  -4.0299  -3.5442  -3.3153
    -2.6636  -2.3821  -2.3466  -2.2782  -2.1360  -2.1193  -2.0547  -1.6181
    -1.5383  -1.2813  -1.0868  -0.8833  -0.5293   0.0575   0.0931   0.1640
     0.3180   0.5032   0.9733   1.0912   1.2584   1.2896   1.3186   1.4355
     1.4987   1.6117   1.8705   1.9907   2.1553   2.5966   2.7041   2.8779
     3.0382   3.5835   3.6827   3.7157   3.8330   3.9750   4.0311   4.2122
     4.2578   4.3853   4.7011   4.8454   5.0310   5.0836   5.2491   5.3027
     5.4783   5.5781   5.6627   5.6952   5.8583   6.0701   6.1155   6.1673
     6.2352   6.2837   6.3753   6.4781   6.5027   6.6287   6.6377   6.8964
     6.9473   7.0255   7.0863   7.1352   7.2488   7.4581   7.5645   7.7728
     7.8537   7.9100   8.0585   8.0977   8.1826   8.2299   8.2728   8.3475
     8.4196   8.5042   8.6181   8.6263   8.7688   8.7806   8.9724   9.0172
     9.1458   9.2176   9.2946   9.3238   9.4786   9.5220   9.5622   9.7179
     9.7818   9.8346   9.9956  10.0529  10.1075  10.2190  10.5706  10.7065
    10.9823  11.2116  11.4796  11.5952  12.2520  13.6733  14.9012  15.1127
    17.9340  18.2423  18.2514  18.2826  18.3652  18.7941  18.9724  19.0412
    19.0925  19.2332  19.3117  19.4831  19.6445  19.8243  19.9056  19.9952
    20.2141  20.2893  20.4353  20.5323  20.6004  20.6112  20.6631  20.6986

     occupation numbers 
     1.0000   1.0000   1.0000   1.0000   1.0000   1.0000   1.0000   1.0000
     1.0000   1.0000   1.0000   1.0000   1.0000   1.0000   1.0000   1.0000
     1.0000   1.0000   1.0000   1.0000   1.0000   1.0000   1.0000   1.0000
     1.0000   1.0000   1.0000   1.0000   1.0000   1.0000   1.0000   1.0000
     1.0000   1.0000   1.0000   1.0000   1.0000   1.0000   1.0000   1.0000
     1.0000   1.0000   1.0000   1.0000   1.0000   1.0000   1.0000   1.0000
     1.0000   1.0000   1.0000   1.0000   1.0000   1.0000   1.0000   1.0000
     1.0000   1.0000   1.0000   1.0000   1.0000   1.0000   1.0000   1.0000
     1.0000   1.0000   1.0000   1.0000   1.0000   1.0000   1.0000   1.0000
     1.0000   1.0000   1.0000   1.0000   1.0000   1.0000   1.0000   1.0000
     1.0000   1.0000   1.0000   1.0000   1.0000   1.0000   1.0000   1.0000
     1.0000   1.0000   1.0000   1.0000   1.0000   1.0000   1.0000   1.0000
     1.0000   1.0000   1.0000   1.0000   1.0000   1.0000   1.0000   1.0000
     1.0000   1.0000   1.0000   1.0000   1.0000   1.0000   1.0000   1.0000
     1.0000   1.0000   1.0000   1.0000   1.0000   1.0000   1.0000   1.0000
     1.0000   1.0000   1.0000   1.0000   1.0000   1.0000   1.0000   0.5000
     0.0000   0.0000   0.0000   0.0000   0.0000   0.0000   0.0000   0.0000
     0.0000   0.0000   0.0000   0.0000   0.0000   0.0000   0.0000   0.0000
     0.0000   0.0000   0.0000   0.0000   0.0000   0.0000   0.0000   0.0000

          k = 0.3333-0.3333 0.3333 ( 24303 PWs)   bands (ev):

    -7.7644  -7.1700  -6.9706  -6.8233  -6.3754  -6.1968  -5.9427  -5.3675
    -4.2710  -4.0319  -3.9302  -3.6161  -3.3979  -3.3453  -3.3106  -3.1847
    -3.0628  -2.8596  -2.6256  -2.3102  -2.0008  -1.8710  -1.8139  -1.6790
    -1.4633  -1.4596  -1.4266  -1.3523  -1.3248  -1.1509  -1.0166   0.0172
     0.8124   0.8951   0.9920   1.0508   1.1233   1.4115   1.8089   1.8341
     1.8952   1.9783   2.0590   2.2838   2.6069   2.6849   2.7365   2.7505
     2.7766   2.8337   2.9731   3.2102   3.5800   4.0148   4.2885   4.3446
     4.8814   4.9312   4.9321   5.0250   5.0493   5.0708   5.2063   5.2882
     5.3698   5.4707   5.4752   5.5747   5.6716   5.8118   5.8885   6.5094
     6.8501   6.8694   6.9583   6.9644   6.9727   7.0812   7.1239   7.1540
     7.2123   7.2447   7.2506   7.2650   7.3464   7.3607   7.3814   7.4160
     7.4271   7.5390   7.7720   7.7927   7.8979   7.9415   7.9514   8.0029
     8.1740   8.1815   8.3193   8.3640   8.3895   8.3925   8.4285   8.5817
     8.7449   8.7943   9.0115   9.0199   9.1704   9.6010   9.6346   9.8072
     9.9581  10.4219  10.4546  10.5687  10.5947  10.9290  10.9642  11.1081
    11.2820  11.2942  11.3529  11.7848  11.7859  13.7030  14.9363  15.2139
    17.9886  18.2894  18.3211  18.4825  18.6293  18.7233  19.1344  19.3821
    19.4800  19.5350  19.5665  19.5972  19.6215  19.6532  19.6612  19.7200
    19.7386  19.7966  19.8751  19.8895  20.0090  20.0145  20.0669  20.1659

     occupation numbers 
     1.0000   1.0000   1.0000   1.0000   1.0000   1.0000   1.0000   1.0000
     1.0000   1.0000   1.0000   1.0000   1.0000   1.0000   1.0000   1.0000
     1.0000   1.0000   1.0000   1.0000   1.0000   1.0000   1.0000   1.0000
     1.0000   1.0000   1.0000   1.0000   1.0000   1.0000   1.0000   1.0000
     1.0000   1.0000   1.0000   1.0000   1.0000   1.0000   1.0000   1.0000
     1.0000   1.0000   1.0000   1.0000   1.0000   1.0000   1.0000   1.0000
     1.0000   1.0000   1.0000   1.0000   1.0000   1.0000   1.0000   1.0000
     1.0000   1.0000   1.0000   1.0000   1.0000   1.0000   1.0000   1.0000
     1.0000   1.0000   1.0000   1.0000   1.0000   1.0000   1.0000   1.0000
     1.0000   1.0000   1.0000   1.0000   1.0000   1.0000   1.0000   1.0000
     1.0000   1.0000   1.0000   1.0000   1.0000   1.0000   1.0000   1.0000
     1.0000   1.0000   1.0000   1.0000   1.0000   1.0000   1.0000   1.0000
     1.0000   1.0000   1.0000   1.0000   1.0000   1.0000   1.0000   1.0000
     1.0000   1.0000   1.0000   1.0000   1.0000   1.0000   1.0000   1.0000
     1.0000   1.0000   1.0000   1.0000   1.0000   1.0000   1.0000   1.0000
     1.0000   1.0000   1.0000   1.0000   1.0000   1.0000   1.0000   0.0000
     0.0000   0.0000   0.0000   0.0000   0.0000   0.0000   0.0000   0.0000
     0.0000   0.0000   0.0000   0.0000   0.0000   0.0000   0.0000   0.0000
     0.0000   0.0000   0.0000   0.0000   0.0000   0.0000   0.0000   0.0000

 ------ SPIN DOWN ----------


          k = 0.0000 0.0000 0.0000 ( 24207 PWs)   bands (ev):

    -8.4887  -6.5885  -6.2599  -6.2599  -6.1631  -6.1631  -5.8560  -4.6971
    -4.1058  -4.1058  -4.0746  -4.0746  -4.0658  -4.0059  -4.0059  -3.9549
    -3.7912  -3.7912  -3.3518  -2.9366  -2.6157  -2.6157  -1.9149  -0.3721
    -0.3239  -0.3239  -0.2842  -0.0020   0.2083   0.2083   0.2735   0.2735
     0.3418   0.6124   0.9133   0.9133   0.9303   0.9764   0.9764   1.0508
     1.0597   1.0597   1.4715   1.4715   2.9724   4.0528   4.1545   4.1545
     4.2206   4.2206   4.2374   4.2870   4.2907   4.2907   4.4168   4.4168
     4.5360   4.5360   4.5816   4.6383   4.6383   4.6737   4.6976   4.7508
     4.7508   4.8279   4.8581   4.8581   5.1607   5.3028   5.3028   5.3411
     5.3411   5.3530   5.3629   5.4994   5.4994   5.9937   5.9937   6.0090
     6.6420   6.6420   6.7097   7.0722   7.1100   7.1100   7.3039   8.3887
     8.3887   8.4012   8.4955   8.4955   8.6983   8.6983   8.7818   8.7818
     8.7999   8.8465   8.9419   8.9419   8.9707   9.2525   9.2525   9.2956
     9.8465   9.8465   9.8631   9.8743   9.8776   9.8776   9.9347   9.9347
     9.9411   9.9411   9.9496   9.9640  10.1135  10.1135  10.3507  10.3854
    10.3854  10.5400  12.2984  12.4707  12.4707  13.9694  15.3708  15.3708
    17.1547  17.3674  17.3674  17.4808  17.4834  17.4834  17.6953  17.8800
    17.8800  17.9605  17.9605  18.2947  18.7385  18.7385  18.8273  20.4360
    20.8128  20.8128  20.8684  20.8696  20.8696  20.9320  20.9320  20.9780

     occupation numbers 
     1.0000   1.0000   1.0000   1.0000   1.0000   1.0000   1.0000   1.0000
     1.0000   1.0000   1.0000   1.0000   1.0000   1.0000   1.0000   1.0000
     1.0000   1.0000   1.0000   1.0000   1.0000   1.0000   1.0000   1.0000
     1.0000   1.0000   1.0000   1.0000   1.0000   1.0000   1.0000   1.0000
     1.0000   1.0000   1.0000   1.0000   1.0000   1.0000   1.0000   1.0000
     1.0000   1.0000   1.0000   1.0000   1.0000   1.0000   1.0000   1.0000
     1.0000   1.0000   1.0000   1.0000   1.0000   1.0000   1.0000   1.0000
     1.0000   1.0000   1.0000   1.0000   1.0000   1.0000   1.0000   1.0000
     1.0000   1.0000   1.0000   1.0000   1.0000   1.0000   1.0000   1.0000
     1.0000   1.0000   1.0000   1.0000   1.0000   1.0000   1.0000   1.0000
     1.0000   1.0000   1.0000   1.0000   1.0000   1.0000   1.0000   1.0000
     1.0000   1.0000   1.0000   1.0000   1.0000   1.0000   1.0000   1.0000
     1.0000   1.0000   1.0000   1.0000   1.0000   1.0000   1.0000   1.0000
     1.0000   1.0000   1.0000   1.0000   1.0000   1.0000   1.0000   1.0000
     1.0000   1.0000   1.0000   1.0000   1.0000   1.0000   1.0000   1.0000
     1.0000   1.0000   1.0000   1.0000   1.0000   1.0000   0.0000   0.0000
     0.0000   0.0000   0.0000   0.0000   0.0000   0.0000   0.0000   0.0000
     0.0000   0.0000   0.0000   0.0000   0.0000   0.0000   0.0000   0.0000
     0.0000   0.0000   0.0000   0.0000   0.0000   0.0000   0.0000   0.0000

          k = 0.0000 0.0000 0.3333 ( 24280 PWs)   bands (ev):

    -8.2482  -7.4656  -6.2579  -6.0154  -5.9312  -5.8047  -5.4144  -5.2713
    -5.1446  -4.9082  -4.4660  -4.0508  -3.7826  -3.7642  -3.6516  -3.4092
    -3.1449  -3.1017  -2.8743  -2.5472  -2.4855  -2.3479  -2.2469  -1.7122
    -0.7342  -0.6696  -0.5598  -0.2614   0.2358   0.3381   0.3697   0.4086
     0.5125   0.6035   0.6124   0.6801   0.7767   0.7818   1.0519   1.5050
     2.0362   2.0642   2.1951   2.2990   2.4575   2.5421   2.5429   2.7396
     3.0117   3.0472   3.2234   3.2412   3.9781   4.0223   4.0857   4.0916
     4.3425   4.3588   4.5609   4.5764   5.0064   5.1698   5.1922   5.2374
     5.2481   5.6656   5.6733   5.8127   5.8242   6.1329   6.1424   6.2179
     6.2352   6.3743   6.4197   6.4718   6.5409   6.5741   6.7059   6.7706
     6.7918   6.9144   7.0191   7.0536   7.1919   7.2091   7.2739   7.2965
     7.4629   7.5063   7.7268   7.8030   7.9096   8.1261   8.2018   8.3276
     8.3864   8.4756   8.7418   8.7645   8.7776   9.0289   9.2734   9.3907
     9.4009   9.6724   9.7121   9.8037   9.8962   9.9181   9.9211   9.9343
     9.9400  10.0451  10.1357  10.1414  10.2705  10.3391  10.3738  10.4165
    10.4582  11.0832  11.7616  11.7659  11.9935  13.6389  15.0551  15.1494
    17.1403  17.2833  17.9167  18.2508  18.3882  18.4875  18.4903  18.5440
    18.7187  18.8492  18.9522  19.0261  19.1779  19.7529  19.8056  20.3784
    20.6816  20.7248  20.7843  20.8000  20.8583  20.8687  20.9371  20.9459

     occupation numbers 
     1.0000   1.0000   1.0000   1.0000   1.0000   1.0000   1.0000   1.0000
     1.0000   1.0000   1.0000   1.0000   1.0000   1.0000   1.0000   1.0000
     1.0000   1.0000   1.0000   1.0000   1.0000   1.0000   1.0000   1.0000
     1.0000   1.0000   1.0000   1.0000   1.0000   1.0000   1.0000   1.0000
     1.0000   1.0000   1.0000   1.0000   1.0000   1.0000   1.0000   1.0000
     1.0000   1.0000   1.0000   1.0000   1.0000   1.0000   1.0000   1.0000
     1.0000   1.0000   1.0000   1.0000   1.0000   1.0000   1.0000   1.0000
     1.0000   1.0000   1.0000   1.0000   1.0000   1.0000   1.0000   1.0000
     1.0000   1.0000   1.0000   1.0000   1.0000   1.0000   1.0000   1.0000
     1.0000   1.0000   1.0000   1.0000   1.0000   1.0000   1.0000   1.0000
     1.0000   1.0000   1.0000   1.0000   1.0000   1.0000   1.0000   1.0000
     1.0000   1.0000   1.0000   1.0000   1.0000   1.0000   1.0000   1.0000
     1.0000   1.0000   1.0000   1.0000   1.0000   1.0000   1.0000   1.0000
     1.0000   1.0000   1.0000   1.0000   1.0000   1.0000   1.0000   1.0000
     1.0000   1.0000   1.0000   1.0000   1.0000   1.0000   1.0000   1.0000
     1.0000   1.0000   1.0000   1.0000   1.0000   1.0000   1.0000   0.0000
     0.0000   0.0000   0.0000   0.0000   0.0000   0.0000   0.0000   0.0000
     0.0000   0.0000   0.0000   0.0000   0.0000   0.0000   0.0000   0.0000
     0.0000   0.0000   0.0000   0.0000   0.0000   0.0000   0.0000   0.0000

          k = 0.0000 0.3333 0.3333 ( 24236 PWs)   bands (ev):

    -8.0128  -7.2300  -7.2149  -6.4677  -5.8333  -5.6466  -5.1963  -5.0046
    -4.9639  -4.8301  -4.4042  -4.2468  -4.1865  -3.8819  -3.4695  -3.4666
    -2.6580  -2.3854  -2.3060  -2.2937  -2.1618  -2.1421  -1.9800  -1.8543
    -1.4529  -1.2651  -1.0421  -0.8520  -0.4413   0.0300   0.1053   0.1690
     0.2360   0.4983   0.7490   1.2279   1.2355   1.3325   1.4041   1.4475
     1.5233   1.5256   1.9619   2.0703   2.2057   2.4352   2.7501   2.8753
     3.0730   3.5241   3.6991   3.7286   3.8418   3.9441   3.9490   4.1306
     4.1377   4.5148   4.7017   4.8723   5.0773   5.1650   5.1870   5.3659
     5.4225   5.6112   5.6804   5.7063   5.8638   6.0750   6.0951   6.1350
     6.1829   6.2507   6.3328   6.5089   6.5378   6.6267   6.6440   6.9455
     6.9532   7.0490   7.0830   7.0882   7.2540   7.3444   7.5678   7.7233
     7.9186   7.9794   8.0875   8.0891   8.1635   8.2769   8.3042   8.4198
     8.4226   8.5065   8.5892   8.6978   8.7489   8.7789   8.9344   8.9552
     9.1008   9.2245   9.2610   9.2920   9.4789   9.5471   9.6655   9.6860
     9.8160   9.8327   9.9624  10.0652  10.1247  10.1965  10.4860  10.7043
    11.0122  11.2293  11.5251  11.6228  12.2591  13.4456  14.9238  15.2602
    17.9442  18.2185  18.2416  18.2964  18.3399  18.7995  18.8854  18.9367
    19.1102  19.1686  19.4444  19.4921  19.6372  19.8524  19.9313  19.9773
    20.1651  20.4767  20.5284  20.5466  20.5668  20.6025  20.6152  20.6904

     occupation numbers 
     1.0000   1.0000   1.0000   1.0000   1.0000   1.0000   1.0000   1.0000
     1.0000   1.0000   1.0000   1.0000   1.0000   1.0000   1.0000   1.0000
     1.0000   1.0000   1.0000   1.0000   1.0000   1.0000   1.0000   1.0000
     1.0000   1.0000   1.0000   1.0000   1.0000   1.0000   1.0000   1.0000
     1.0000   1.0000   1.0000   1.0000   1.0000   1.0000   1.0000   1.0000
     1.0000   1.0000   1.0000   1.0000   1.0000   1.0000   1.0000   1.0000
     1.0000   1.0000   1.0000   1.0000   1.0000   1.0000   1.0000   1.0000
     1.0000   1.0000   1.0000   1.0000   1.0000   1.0000   1.0000   1.0000
     1.0000   1.0000   1.0000   1.0000   1.0000   1.0000   1.0000   1.0000
     1.0000   1.0000   1.0000   1.0000   1.0000   1.0000   1.0000   1.0000
     1.0000   1.0000   1.0000   1.0000   1.0000   1.0000   1.0000   1.0000
     1.0000   1.0000   1.0000   1.0000   1.0000   1.0000   1.0000   1.0000
     1.0000   1.0000   1.0000   1.0000   1.0000   1.0000   1.0000   1.0000
     1.0000   1.0000   1.0000   1.0000   1.0000   1.0000   1.0000   1.0000
     1.0000   1.0000   1.0000   1.0000   1.0000   1.0000   1.0000   1.0000
     1.0000   1.0000   1.0000   1.0000   1.0000   1.0000   1.0000   0.0000
     0.0000   0.0000   0.0000   0.0000   0.0000   0.0000   0.0000   0.0000
     0.0000   0.0000   0.0000   0.0000   0.0000   0.0000   0.0000   0.0000
     0.0000   0.0000   0.0000   0.0000   0.0000   0.0000   0.0000   0.0000

          k = 0.3333 0.3333 0.3333 ( 24303 PWs)   bands (ev):

    -7.7836  -7.0158  -6.9704  -6.9704  -6.1982  -6.1982  -6.1830  -5.3521
    -4.0267  -4.0267  -4.0199  -3.4198  -3.3635  -3.3494  -3.3494  -3.2349
    -3.2349  -2.8651  -2.6055  -2.6055  -1.9259  -1.8884  -1.8884  -1.5446
    -1.4565  -1.4565  -1.3904  -1.3727  -1.3727  -1.0324  -1.0324   0.1249
     0.8987   0.8987   1.0329   1.0478   1.0478   1.3320   1.8832   1.8832
     1.8872   1.9391   2.0439   2.0439   2.6159   2.6865   2.6865   2.7409
     2.7409   2.7681   3.1895   3.1895   3.6024   4.1039   4.3434   4.3434
     4.8211   4.9827   4.9827   5.0034   5.0923   5.0923   5.1242   5.3908
     5.3908   5.4736   5.5572   5.5572   5.6622   5.6782   5.6782   6.3865
     6.8853   6.8853   6.9555   6.9888   6.9888   6.9923   7.1696   7.1696
     7.2269   7.2369   7.2369   7.2812   7.3149   7.3149   7.3827   7.4208
     7.4208   7.5584   7.7445   7.7445   7.9451   7.9470   7.9470   8.0110
     8.2475   8.2475   8.3464   8.3464   8.3524   8.4511   8.5567   8.5567
     8.7544   8.7544   8.9528   9.0937   9.2047   9.5959   9.5959   9.8791
     9.8791  10.4960  10.5279  10.5412  10.5412  10.9852  10.9852  11.0142
    11.3260  11.3597  11.3597  11.7097  11.7097  13.3863  15.2209  15.2209
    17.9476  18.2743  18.2743  18.4480  18.6235  18.6235  19.1889  19.3936
    19.3936  19.5869  19.5869  19.6138  19.6138  19.6330  19.6514  19.7326
    19.7326  19.8097  19.9256  19.9256  20.0435  20.0444  20.0445  20.1810

     occupation numbers 
     1.0000   1.0000   1.0000   1.0000   1.0000   1.0000   1.0000   1.0000
     1.0000   1.0000   1.0000   1.0000   1.0000   1.0000   1.0000   1.0000
     1.0000   1.0000   1.0000   1.0000   1.0000   1.0000   1.0000   1.0000
     1.0000   1.0000   1.0000   1.0000   1.0000   1.0000   1.0000   1.0000
     1.0000   1.0000   1.0000   1.0000   1.0000   1.0000   1.0000   1.0000
     1.0000   1.0000   1.0000   1.0000   1.0000   1.0000   1.0000   1.0000
     1.0000   1.0000   1.0000   1.0000   1.0000   1.0000   1.0000   1.0000
     1.0000   1.0000   1.0000   1.0000   1.0000   1.0000   1.0000   1.0000
     1.0000   1.0000   1.0000   1.0000   1.0000   1.0000   1.0000   1.0000
     1.0000   1.0000   1.0000   1.0000   1.0000   1.0000   1.0000   1.0000
     1.0000   1.0000   1.0000   1.0000   1.0000   1.0000   1.0000   1.0000
     1.0000   1.0000   1.0000   1.0000   1.0000   1.0000   1.0000   1.0000
     1.0000   1.0000   1.0000   1.0000   1.0000   1.0000   1.0000   1.0000
     1.0000   1.0000   1.0000   1.0000   1.0000   1.0000   1.0000   1.0000
     1.0000   1.0000   1.0000   1.0000   1.0000   1.0000   1.0000   1.0000
     1.0000   1.0000   1.0000   1.0000   1.0000   1.0000   0.0000   0.0000
     0.0000   0.0000   0.0000   0.0000   0.0000   0.0000   0.0000   0.0000
     0.0000   0.0000   0.0000   0.0000   0.0000   0.0000   0.0000   0.0000
     0.0000   0.0000   0.0000   0.0000   0.0000   0.0000   0.0000   0.0000

          k =-0.3333 0.0000 0.3333 ( 24236 PWs)   bands (ev):

    -8.0034  -7.3571  -7.0948  -6.4400  -5.8557  -5.6642  -5.2634  -5.0045
    -4.8898  -4.7423  -4.4626  -4.2404  -4.1527  -4.0300  -3.5442  -3.3154
    -2.6633  -2.3822  -2.3468  -2.2783  -2.1361  -2.1194  -2.0548  -1.6182
    -1.5384  -1.2814  -1.0868  -0.8835  -0.5293   0.0574   0.0930   0.1638
     0.3179   0.5032   0.9731   1.0912   1.2583   1.2895   1.3185   1.4354
     1.4986   1.6116   1.8705   1.9906   2.1553   2.5965   2.7041   2.8779
     3.0381   3.5834   3.6826   3.7156   3.8329   3.9749   4.0310   4.2122
     4.2577   4.3853   4.7010   4.8453   5.0310   5.0836   5.2491   5.3026
     5.4783   5.5780   5.6626   5.6951   5.8582   6.0700   6.1155   6.1673
     6.2351   6.2837   6.3753   6.4780   6.5027   6.6286   6.6376   6.8964
     6.9473   7.0255   7.0862   7.1351   7.2487   7.4581   7.5646   7.7728
     7.8537   7.9100   8.0585   8.0977   8.1826   8.2298   8.2729   8.3474
     8.4195   8.5042   8.6181   8.6263   8.7688   8.7806   8.9724   9.0172
     9.1459   9.2176   9.2946   9.3238   9.4786   9.5221   9.5622   9.7179
     9.7819   9.8346   9.9956  10.0529  10.1075  10.2190  10.5706  10.7066
    10.9825  11.2118  11.4797  11.5952  12.2520  13.6742  14.9011  15.1126
    17.9342  18.2423  18.2513  18.2826  18.3651  18.7942  18.9724  19.0413
    19.0926  19.2333  19.3119  19.4830  19.6445  19.8244  19.9057  19.9952
    20.2145  20.2893  20.4354  20.5324  20.6005  20.6113  20.6634  20.6986

     occupation numbers 
     1.0000   1.0000   1.0000   1.0000   1.0000   1.0000   1.0000   1.0000
     1.0000   1.0000   1.0000   1.0000   1.0000   1.0000   1.0000   1.0000
     1.0000   1.0000   1.0000   1.0000   1.0000   1.0000   1.0000   1.0000
     1.0000   1.0000   1.0000   1.0000   1.0000   1.0000   1.0000   1.0000
     1.0000   1.0000   1.0000   1.0000   1.0000   1.0000   1.0000   1.0000
     1.0000   1.0000   1.0000   1.0000   1.0000   1.0000   1.0000   1.0000
     1.0000   1.0000   1.0000   1.0000   1.0000   1.0000   1.0000   1.0000
     1.0000   1.0000   1.0000   1.0000   1.0000   1.0000   1.0000   1.0000
     1.0000   1.0000   1.0000   1.0000   1.0000   1.0000   1.0000   1.0000
     1.0000   1.0000   1.0000   1.0000   1.0000   1.0000   1.0000   1.0000
     1.0000   1.0000   1.0000   1.0000   1.0000   1.0000   1.0000   1.0000
     1.0000   1.0000   1.0000   1.0000   1.0000   1.0000   1.0000   1.0000
     1.0000   1.0000   1.0000   1.0000   1.0000   1.0000   1.0000   1.0000
     1.0000   1.0000   1.0000   1.0000   1.0000   1.0000   1.0000   1.0000
     1.0000   1.0000   1.0000   1.0000   1.0000   1.0000   1.0000   1.0000
     1.0000   1.0000   1.0000   1.0000   1.0000   1.0000   1.0000   0.5000
     0.0000   0.0000   0.0000   0.0000   0.0000   0.0000   0.0000   0.0000
     0.0000   0.0000   0.0000   0.0000   0.0000   0.0000   0.0000   0.0000
     0.0000   0.0000   0.0000   0.0000   0.0000   0.0000   0.0000   0.0000

          k = 0.3333-0.3333 0.3333 ( 24303 PWs)   bands (ev):

    -7.7646  -7.1699  -6.9708  -6.8235  -6.3754  -6.1969  -5.9428  -5.3674
    -4.2708  -4.0320  -3.9303  -3.6159  -3.3981  -3.3454  -3.3107  -3.1849
    -3.0629  -2.8595  -2.6258  -2.3102  -2.0008  -1.8711  -1.8141  -1.6790
    -1.4635  -1.4597  -1.4267  -1.3524  -1.3249  -1.1510  -1.0166   0.0172
     0.8123   0.8950   0.9919   1.0507   1.1232   1.4114   1.8089   1.8339
     1.8951   1.9782   2.0589   2.2837   2.6069   2.6848   2.7364   2.7504
     2.7765   2.8336   2.9730   3.2102   3.5799   4.0147   4.2885   4.3446
     4.8813   4.9311   4.9321   5.0249   5.0492   5.0707   5.2063   5.2881
     5.3697   5.4707   5.4751   5.5746   5.6715   5.8118   5.8884   6.5093
     6.8501   6.8694   6.9582   6.9644   6.9726   7.0812   7.1240   7.1540
     7.2122   7.2447   7.2506   7.2650   7.3463   7.3607   7.3813   7.4160
     7.4270   7.5390   7.7720   7.7926   7.8979   7.9414   7.9514   8.0029
     8.1740   8.1816   8.3192   8.3640   8.3895   8.3924   8.4284   8.5817
     8.7449   8.7943   9.0115   9.0199   9.1705   9.6010   9.6346   9.8074
     9.9581  10.4220  10.4546  10.5688  10.5946  10.9293  10.9642  11.1081
    11.2820  11.2942  11.3529  11.7848  11.7859  13.7041  14.9361  15.2137
    17.9888  18.2893  18.3210  18.4826  18.6293  18.7233  19.1345  19.3824
    19.4801  19.5351  19.5664  19.5972  19.6214  19.6531  19.6613  19.7200
    19.7385  19.7966  19.8752  19.8897  20.0090  20.0146  20.0669  20.1660

     occupation numbers 
     1.0000   1.0000   1.0000   1.0000   1.0000   1.0000   1.0000   1.0000
     1.0000   1.0000   1.0000   1.0000   1.0000   1.0000   1.0000   1.0000
     1.0000   1.0000   1.0000   1.0000   1.0000   1.0000   1.0000   1.0000
     1.0000   1.0000   1.0000   1.0000   1.0000   1.0000   1.0000   1.0000
     1.0000   1.0000   1.0000   1.0000   1.0000   1.0000   1.0000   1.0000
     1.0000   1.0000   1.0000   1.0000   1.0000   1.0000   1.0000   1.0000
     1.0000   1.0000   1.0000   1.0000   1.0000   1.0000   1.0000   1.0000
     1.0000   1.0000   1.0000   1.0000   1.0000   1.0000   1.0000   1.0000
     1.0000   1.0000   1.0000   1.0000   1.0000   1.0000   1.0000   1.0000
     1.0000   1.0000   1.0000   1.0000   1.0000   1.0000   1.0000   1.0000
     1.0000   1.0000   1.0000   1.0000   1.0000   1.0000   1.0000   1.0000
     1.0000   1.0000   1.0000   1.0000   1.0000   1.0000   1.0000   1.0000
     1.0000   1.0000   1.0000   1.0000   1.0000   1.0000   1.0000   1.0000
     1.0000   1.0000   1.0000   1.0000   1.0000   1.0000   1.0000   1.0000
     1.0000   1.0000   1.0000   1.0000   1.0000   1.0000   1.0000   1.0000
     1.0000   1.0000   1.0000   1.0000   1.0000   1.0000   1.0000   0.0000
     0.0000   0.0000   0.0000   0.0000   0.0000   0.0000   0.0000   0.0000
     0.0000   0.0000   0.0000   0.0000   0.0000   0.0000   0.0000   0.0000
     0.0000   0.0000   0.0000   0.0000   0.0000   0.0000   0.0000   0.0000

     the spin up/dw Fermi energies are    15.1146   15.1145 ev

!    total energy              =    -724.72013607 Ry
     Harris-Foulkes estimate   =    -724.72013562 Ry
     estimated scf accuracy    <       0.00000041 Ry

     The total energy is the sum of the following terms:

     one-electron contribution =     238.23400143 Ry
     hartree contribution      =      66.68053098 Ry
     xc contribution           =    -226.08470250 Ry
     ewald contribution        =    -803.54989304 Ry
     smearing contrib. (-TS)   =      -0.00007294 Ry

     total magnetization       =     0.00 Bohr mag/cell
     absolute magnetization    =     0.00 Bohr mag/cell

     convergence has been achieved in   9 iterations

     Forces acting on atoms (cartesian axes, Ry/au):

     atom    1 type  1   force =    -0.00370388   -0.00370388   -0.00009600
     atom    2 type  1   force =    -0.00031140    0.00110165    0.00110165
     atom    3 type  1   force =    -0.00012041   -0.00294149   -0.00012041
     atom    4 type  1   force =     0.00110165   -0.00031140    0.00110165
     atom    5 type  1   force =    -0.00294149   -0.00012041   -0.00012041
     atom    6 type  1   force =    -0.00090715   -0.00090715   -0.00090715
     atom    7 type  1   force =     0.00110165    0.00110165   -0.00031140
     atom    8 type  1   force =     0.00414274    0.00414274    0.00249351
     atom    9 type  1   force =     0.01793296    0.01793296   -0.03734683
     atom   10 type  1   force =    -0.00260188   -0.00475297   -0.00277640
     atom   11 type  1   force =     0.03587958   -0.03386975    0.00469859
     atom   12 type  1   force =    -0.00475297   -0.00260188   -0.00277640
     atom   13 type  1   force =    -0.03386975    0.03587958    0.00469859
     atom   14 type  1   force =    -0.00327067   -0.00327067    0.00303330
     atom   15 type  1   force =    -0.00012041   -0.00012041   -0.00294149
     atom   16 type  1   force =    -0.02939669   -0.02939669   -0.01505522
     atom   17 type  1   force =     0.00469859    0.03587958   -0.03386975
     atom   18 type  1   force =     0.00469859   -0.03386975    0.03587958
     atom   19 type  1   force =    -0.01505522   -0.02939669   -0.02939669
     atom   20 type  1   force =     0.00249351    0.00414274    0.00414274
     atom   21 type  1   force =    -0.00277640   -0.00260188   -0.00475297
     atom   22 type  1   force =    -0.00277640   -0.00475297   -0.00260188
     atom   23 type  1   force =     0.00303330   -0.00327067   -0.00327067
     atom   24 type  1   force =     0.01793296   -0.03734683    0.01793296
     atom   25 type  1   force =     0.03587958    0.00469859   -0.03386975
     atom   26 type  1   force =     0.00414274    0.00249351    0.00414274
     atom   27 type  1   force =    -0.00260188   -0.00277640   -0.00475297
     atom   28 type  1   force =    -0.03386975    0.00469859    0.03587958
     atom   29 type  1   force =    -0.02939669   -0.01505522   -0.02939669
     atom   30 type  1   force =    -0.03734683    0.01793296    0.01793296
     atom   31 type  1   force =    -0.00475297   -0.00277640   -0.00260188
     atom   32 type  1   force =     0.00303185   -0.00044825    0.00303185
     atom   33 type  1   force =     0.06379439   -0.03280124    0.06379439
     atom   34 type  1   force =     0.00711971    0.00661864    0.00661864
     atom   35 type  1   force =    -0.00370388   -0.00009600   -0.00370388
     atom   36 type  1   force =     0.00661864    0.00711971    0.00661864
     atom   37 type  1   force =    -0.00009600   -0.00370388   -0.00370388
     atom   38 type  1   force =    -0.00067003   -0.00067003   -0.00067003
     atom   39 type  1   force =     0.00661864    0.00661864    0.00711971
     atom   40 type  1   force =     0.00105937    0.00105937    0.00041536
     atom   41 type  1   force =    -0.00231847   -0.00231847    0.00409884
     atom   42 type  1   force =    -0.00617880    0.00083625    0.00491625
     atom   43 type  1   force =     0.00916071   -0.00373067    0.00842786
     atom   44 type  1   force =     0.00083625   -0.00617880    0.00491625
     atom   45 type  1   force =    -0.00373067    0.00916071    0.00842786
     atom   46 type  1   force =     0.00083625    0.00491625   -0.00617880
     atom   47 type  1   force =     0.00303185    0.00303185   -0.00044825
     atom   48 type  1   force =     0.00409884   -0.00231847   -0.00231847
     atom   49 type  1   force =     0.00842786    0.00916071   -0.00373067
     atom   50 type  1   force =     0.00842786   -0.00373067    0.00916071
     atom   51 type  1   force =    -0.03280124    0.06379439    0.06379439
     atom   52 type  1   force =     0.00041536    0.00105937    0.00105937
     atom   53 type  1   force =     0.00491625   -0.00617880    0.00083625
     atom   54 type  1   force =     0.00491625    0.00083625   -0.00617880
     atom   55 type  1   force =    -0.00044825    0.00303185    0.00303185
     atom   56 type  1   force =    -0.00231847    0.00409884   -0.00231847
     atom   57 type  1   force =     0.00916071    0.00842786   -0.00373067
     atom   58 type  1   force =     0.00105937    0.00041536    0.00105937
     atom   59 type  1   force =    -0.00617880    0.00491625    0.00083625
     atom   60 type  1   force =    -0.00373067    0.00842786    0.00916071
     atom   61 type  1   force =     0.06379439    0.06379439   -0.03280124
     atom   62 type  1   force =    -0.00327067    0.00303330   -0.00327067
     atom   63 type  2   force =    -0.06434365   -0.06434365   -0.06434365
     The non-local contrib.  to forces
     atom    1 type  1   force =    -0.00703570   -0.00703570    0.05556776
     atom    2 type  1   force =    -0.01426239    0.01025362    0.01025362
     atom    3 type  1   force =    -0.00318773    0.01602670   -0.00318773
     atom    4 type  1   force =     0.01025362   -0.01426239    0.01025362
     atom    5 type  1   force =     0.01602670   -0.00318773   -0.00318773
     atom    6 type  1   force =     0.00336108    0.00336108    0.00336108
     atom    7 type  1   force =     0.01025362    0.01025362   -0.01426239
     atom    8 type  1   force =    -0.01651699   -0.01651699    0.01087734
     atom    9 type  1   force =     0.12848043    0.12848043   -0.13861105
     atom   10 type  1   force =    -0.00544307    0.00298669    0.01573186
     atom   11 type  1   force =    -0.04094940    0.02681763   -0.06376543
     atom   12 type  1   force =     0.00298669   -0.00544307    0.01573186
     atom   13 type  1   force =     0.02681763   -0.04094940   -0.06376543
     atom   14 type  1   force =     0.01706767    0.01706767    0.00393180
     atom   15 type  1   force =    -0.00318773   -0.00318773    0.01602670
     atom   16 type  1   force =     0.04830116    0.04830116    0.05313263
     atom   17 type  1   force =    -0.06376543   -0.04094940    0.02681763
     atom   18 type  1   force =    -0.06376543    0.02681763   -0.04094940
     atom   19 type  1   force =     0.05313263    0.04830116    0.04830116
     atom   20 type  1   force =     0.01087734   -0.01651699   -0.01651699
     atom   21 type  1   force =     0.01573186   -0.00544307    0.00298669
     atom   22 type  1   force =     0.01573186    0.00298669   -0.00544307
     atom   23 type  1   force =     0.00393180    0.01706767    0.01706767
     atom   24 type  1   force =     0.12848043   -0.13861105    0.12848043
     atom   25 type  1   force =    -0.04094940   -0.06376543    0.02681763
     atom   26 type  1   force =    -0.01651699    0.01087734   -0.01651699
     atom   27 type  1   force =    -0.00544307    0.01573186    0.00298669
     atom   28 type  1   force =     0.02681763   -0.06376543   -0.04094940
     atom   29 type  1   force =     0.04830116    0.05313263    0.04830116
     atom   30 type  1   force =    -0.13861105    0.12848043    0.12848043
     atom   31 type  1   force =     0.00298669    0.01573186   -0.00544307
     atom   32 type  1   force =     0.00196294    0.05686682    0.00196294
     atom   33 type  1   force =     0.35758660   -0.32389994    0.35758660
     atom   34 type  1   force =    -0.04318565    0.03301808    0.03301808
     atom   35 type  1   force =    -0.00703570    0.05556776   -0.00703570
     atom   36 type  1   force =     0.03301808   -0.04318565    0.03301808
     atom   37 type  1   force =     0.05556776   -0.00703570   -0.00703570
     atom   38 type  1   force =     0.01063362    0.01063362    0.01063362
     atom   39 type  1   force =     0.03301808    0.03301808   -0.04318565
     atom   40 type  1   force =    -0.00531467   -0.00531467    0.00664864
     atom   41 type  1   force =    -0.01537839   -0.01537839   -0.02436249
     atom   42 type  1   force =    -0.01910138    0.04298593    0.02946914
     atom   43 type  1   force =    -0.01963392   -0.02237598   -0.02813058
     atom   44 type  1   force =     0.04298593   -0.01910138    0.02946914
     atom   45 type  1   force =    -0.02237598   -0.01963392   -0.02813058
     atom   46 type  1   force =     0.04298593    0.02946914   -0.01910138
     atom   47 type  1   force =     0.00196294    0.00196294    0.05686682
     atom   48 type  1   force =    -0.02436249   -0.01537839   -0.01537839
     atom   49 type  1   force =    -0.02813058   -0.01963392   -0.02237598
     atom   50 type  1   force =    -0.02813058   -0.02237598   -0.01963392
     atom   51 type  1   force =    -0.32389994    0.35758660    0.35758660
     atom   52 type  1   force =     0.00664864   -0.00531467   -0.00531467
     atom   53 type  1   force =     0.02946914   -0.01910138    0.04298593
     atom   54 type  1   force =     0.02946914    0.04298593   -0.01910138
     atom   55 type  1   force =     0.05686682    0.00196294    0.00196294
     atom   56 type  1   force =    -0.01537839   -0.02436249   -0.01537839
     atom   57 type  1   force =    -0.01963392   -0.02813058   -0.02237598
     atom   58 type  1   force =    -0.00531467    0.00664864   -0.00531467
     atom   59 type  1   force =    -0.01910138    0.02946914    0.04298593
     atom   60 type  1   force =    -0.02237598   -0.02813058   -0.01963392
     atom   61 type  1   force =     0.35758660    0.35758660   -0.32389994
     atom   62 type  1   force =     0.01706767    0.00393180    0.01706767
     atom   63 type  2   force =    -1.02279338   -1.02279338   -1.02279338
     The ionic contribution  to forces
     atom    1 type  1   force =     0.27836098    0.27836098   -0.57616026
     atom    2 type  1   force =     0.03103656   -0.05202026   -0.05202026
     atom    3 type  1   force =     0.06959025   -0.14404007    0.06959025
     atom    4 type  1   force =    -0.05202026    0.03103656   -0.05202026
     atom    5 type  1   force =    -0.14404007    0.06959025    0.06959025
     atom    6 type  1   force =    -0.02794042   -0.02794042   -0.02794042
     atom    7 type  1   force =    -0.05202026   -0.05202026    0.03103656
     atom    8 type  1   force =     0.11807391    0.11807391   -0.14404007
     atom    9 type  1   force =     0.30992892    0.30992892    0.52079023
     atom   10 type  1   force =     0.15662760   -0.13564389   -0.05202026
     atom   11 type  1   force =     0.76112890   -0.68667908    0.06959025
     atom   12 type  1   force =    -0.13564389    0.15662760   -0.05202026
     atom   13 type  1   force =    -0.68667908    0.76112890    0.06959025
     atom   14 type  1   force =    -0.15972373   -0.15972373   -0.02794042
     atom   15 type  1   force =     0.06959025    0.06959025   -0.14404007
     atom   16 type  1   force =    -0.77869888   -0.77869888    0.03103656
     atom   17 type  1   force =     0.06959025    0.76112890   -0.68667908
     atom   18 type  1   force =     0.06959025   -0.68667908    0.76112890
     atom   19 type  1   force =     0.03103656   -0.77869888   -0.77869888
     atom   20 type  1   force =    -0.14404007    0.11807391    0.11807391
     atom   21 type  1   force =    -0.05202026    0.15662760   -0.13564389
     atom   22 type  1   force =    -0.05202026   -0.13564389    0.15662760
     atom   23 type  1   force =    -0.02794042   -0.15972373   -0.15972373
     atom   24 type  1   force =     0.30992892    0.52079023    0.30992892
     atom   25 type  1   force =     0.76112890    0.06959025   -0.68667908
     atom   26 type  1   force =     0.11807391   -0.14404007    0.11807391
     atom   27 type  1   force =     0.15662760   -0.05202026   -0.13564389
     atom   28 type  1   force =    -0.68667908    0.06959025    0.76112890
     atom   29 type  1   force =    -0.77869888    0.03103656   -0.77869888
     atom   30 type  1   force =     0.52079023    0.30992892    0.30992892
     atom   31 type  1   force =    -0.13564389   -0.05202026    0.15662760
     atom   32 type  1   force =    -0.23144494   -0.57616026   -0.23144494
     atom   33 type  1   force =    -1.87548112    2.08316090   -1.87548112
     atom   34 type  1   force =     0.12414622   -0.20808105   -0.20808105
     atom   35 type  1   force =     0.27836098   -0.57616026    0.27836098
     atom   36 type  1   force =    -0.20808105    0.12414622   -0.20808105
     atom   37 type  1   force =    -0.57616026    0.27836098    0.27836098
     atom   38 type  1   force =    -0.11176170   -0.11176170   -0.11176170
     atom   39 type  1   force =    -0.20808105   -0.20808105    0.12414622
     atom   40 type  1   force =     0.06484566    0.06484566   -0.11176170
     atom   41 type  1   force =     0.00040127    0.00040127    0.12414622
     atom   42 type  1   force =     0.16116501   -0.07723018   -0.20808105
     atom   43 type  1   force =     0.36848048   -0.07068119    0.27836098
     atom   44 type  1   force =    -0.07723018    0.16116501   -0.20808105
     atom   45 type  1   force =    -0.07068119    0.36848048    0.27836098
     atom   46 type  1   force =    -0.07723018   -0.20808105    0.16116501
     atom   47 type  1   force =    -0.23144494   -0.23144494   -0.57616026
     atom   48 type  1   force =     0.12414622    0.00040127    0.00040127
     atom   49 type  1   force =     0.27836098    0.36848048   -0.07068119
     atom   50 type  1   force =     0.27836098   -0.07068119    0.36848048
     atom   51 type  1   force =     2.08316090   -1.87548112   -1.87548112
     atom   52 type  1   force =    -0.11176170    0.06484566    0.06484566
     atom   53 type  1   force =    -0.20808105    0.16116501   -0.07723018
     atom   54 type  1   force =    -0.20808105   -0.07723018    0.16116501
     atom   55 type  1   force =    -0.57616026   -0.23144494   -0.23144494
     atom   56 type  1   force =     0.00040127    0.12414622    0.00040127
     atom   57 type  1   force =     0.36848048    0.27836098   -0.07068119
     atom   58 type  1   force =     0.06484566   -0.11176170    0.06484566
     atom   59 type  1   force =     0.16116501   -0.20808105   -0.07723018
     atom   60 type  1   force =    -0.07068119    0.27836098    0.36848048
     atom   61 type  1   force =    -1.87548112   -1.87548112    2.08316090
     atom   62 type  1   force =    -0.15972373   -0.02794042   -0.15972373
     atom   63 type  2   force =     2.60395113    2.60395113    2.60395113
     The local contribution  to forces
     atom    1 type  1   force =    -0.27496235   -0.27496235    0.52034647
     atom    2 type  1   force =    -0.01707129    0.04286507    0.04286507
     atom    3 type  1   force =    -0.06649271    0.12501605   -0.06649271
     atom    4 type  1   force =     0.04286507   -0.01707129    0.04286507
     atom    5 type  1   force =     0.12501605   -0.06649271   -0.06649271
     atom    6 type  1   force =     0.02363123    0.02363123    0.02363123
     atom    7 type  1   force =     0.04286507    0.04286507   -0.01707129
     atom    8 type  1   force =    -0.09741734   -0.09741734    0.13563567
     atom    9 type  1   force =    -0.42040949   -0.42040949   -0.41945869
     atom   10 type  1   force =    -0.15378247    0.12787585    0.03348599
     atom   11 type  1   force =    -0.68416253    0.62587356   -0.00109424
     atom   12 type  1   force =     0.12787585   -0.15378247    0.03348599
     atom   13 type  1   force =     0.62587356   -0.68416253   -0.00109424
     atom   14 type  1   force =     0.13938859    0.13938859    0.02702288
     atom   15 type  1   force =    -0.06649271   -0.06649271    0.12501605
     atom   16 type  1   force =     0.70084287    0.70084287   -0.09921581
     atom   17 type  1   force =    -0.00109424   -0.68416253    0.62587356
     atom   18 type  1   force =    -0.00109424    0.62587356   -0.68416253
     atom   19 type  1   force =    -0.09921581    0.70084287    0.70084287
     atom   20 type  1   force =     0.13563567   -0.09741734   -0.09741734
     atom   21 type  1   force =     0.03348599   -0.15378247    0.12787585
     atom   22 type  1   force =     0.03348599    0.12787585   -0.15378247
     atom   23 type  1   force =     0.02702288    0.13938859    0.13938859
     atom   24 type  1   force =    -0.42040949   -0.41945869   -0.42040949
     atom   25 type  1   force =    -0.68416253   -0.00109424    0.62587356
     atom   26 type  1   force =    -0.09741734    0.13563567   -0.09741734
[...]
     atom   10 type  1   force =     0.00000000    0.00000000    0.00000000
     atom   11 type  1   force =     0.00000000    0.00000000    0.00000000
     atom   12 type  1   force =     0.00000000    0.00000000    0.00000000
     atom   13 type  1   force =     0.00000000    0.00000000    0.00000000
     atom   14 type  1   force =     0.00000000    0.00000000    0.00000000
     atom   15 type  1   force =     0.00000000    0.00000000    0.00000000
     atom   16 type  1   force =     0.00000000    0.00000000    0.00000000
     atom   17 type  1   force =     0.00000000    0.00000000    0.00000000
     atom   18 type  1   force =     0.00000000    0.00000000    0.00000000
     atom   19 type  1   force =     0.00000000    0.00000000    0.00000000
     atom   20 type  1   force =     0.00000000    0.00000000    0.00000000
     atom   21 type  1   force =     0.00000000    0.00000000    0.00000000
     atom   22 type  1   force =     0.00000000    0.00000000    0.00000000
     atom   23 type  1   force =     0.00000000    0.00000000    0.00000000
     atom   24 type  1   force =     0.00000000    0.00000000    0.00000000
     atom   25 type  1   force =     0.00000000    0.00000000    0.00000000
     atom   26 type  1   force =     0.00000000    0.00000000    0.00000000
     atom   27 type  1   force =     0.00000000    0.00000000    0.00000000
     atom   28 type  1   force =     0.00000000    0.00000000    0.00000000
     atom   29 type  1   force =     0.00000000    0.00000000    0.00000000
     atom   30 type  1   force =     0.00000000    0.00000000    0.00000000
     atom   31 type  1   force =     0.00000000    0.00000000    0.00000000
     atom   32 type  1   force =     0.00000000    0.00000000    0.00000000
     atom   33 type  1   force =     0.00000000    0.00000000    0.00000000
     atom   34 type  1   force =     0.00000000    0.00000000    0.00000000
     atom   35 type  1   force =     0.00000000    0.00000000    0.00000000
     atom   36 type  1   force =     0.00000000    0.00000000    0.00000000
     atom   37 type  1   force =     0.00000000    0.00000000    0.00000000
     atom   38 type  1   force =     0.00000000    0.00000000    0.00000000
     atom   39 type  1   force =     0.00000000    0.00000000    0.00000000
     atom   40 type  1   force =     0.00000000    0.00000000    0.00000000
     atom   41 type  1   force =     0.00000000    0.00000000    0.00000000
     atom   42 type  1   force =     0.00000000    0.00000000    0.00000000
     atom   43 type  1   force =     0.00000000    0.00000000    0.00000000
     atom   44 type  1   force =     0.00000000    0.00000000    0.00000000
     atom   45 type  1   force =     0.00000000    0.00000000    0.00000000
     atom   46 type  1   force =     0.00000000    0.00000000    0.00000000
     atom   47 type  1   force =     0.00000000    0.00000000    0.00000000
     atom   48 type  1   force =     0.00000000    0.00000000    0.00000000
     atom   49 type  1   force =     0.00000000    0.00000000    0.00000000
     atom   50 type  1   force =     0.00000000    0.00000000    0.00000000
     atom   51 type  1   force =     0.00000000    0.00000000    0.00000000
     atom   52 type  1   force =     0.00000000    0.00000000    0.00000000
     atom   53 type  1   force =     0.00000000    0.00000000    0.00000000
     atom   54 type  1   force =     0.00000000    0.00000000    0.00000000
     atom   55 type  1   force =     0.00000000    0.00000000    0.00000000
     atom   56 type  1   force =     0.00000000    0.00000000    0.00000000
     atom   57 type  1   force =     0.00000000    0.00000000    0.00000000
     atom   58 type  1   force =     0.00000000    0.00000000    0.00000000
     atom   59 type  1   force =     0.00000000    0.00000000    0.00000000
     atom   60 type  1   force =     0.00000000    0.00000000    0.00000000
     atom   61 type  1   force =     0.00000000    0.00000000    0.00000000
     atom   62 type  1   force =     0.00000000    0.00000000    0.00000000
     atom   63 type  2   force =     0.00000000    0.00000000    0.00000000
     The Hubbard contrib.    to forces
     atom    1 type  1   force =     0.00000000    0.00000000    0.00000000
     atom    2 type  1   force =     0.00000000    0.00000000    0.00000000
     atom    3 type  1   force =     0.00000000    0.00000000    0.00000000
     atom    4 type  1   force =     0.00000000    0.00000000    0.00000000
     atom    5 type  1   force =     0.00000000    0.00000000    0.00000000
     atom    6 type  1   force =     0.00000000    0.00000000    0.00000000
     atom    7 type  1   force =     0.00000000    0.00000000    0.00000000
     atom    8 type  1   force =     0.00000000    0.00000000    0.00000000
     atom    9 type  1   force =     0.00000000    0.00000000    0.00000000
     atom   10 type  1   force =     0.00000000    0.00000000    0.00000000
     atom   11 type  1   force =     0.00000000    0.00000000    0.00000000
     atom   12 type  1   force =     0.00000000    0.00000000    0.00000000
     atom   13 type  1   force =     0.00000000    0.00000000    0.00000000
     atom   14 type  1   force =     0.00000000    0.00000000    0.00000000
     atom   15 type  1   force =     0.00000000    0.00000000    0.00000000
     atom   16 type  1   force =     0.00000000    0.00000000    0.00000000
     atom   17 type  1   force =     0.00000000    0.00000000    0.00000000
     atom   18 type  1   force =     0.00000000    0.00000000    0.00000000
     atom   19 type  1   force =     0.00000000    0.00000000    0.00000000
     atom   20 type  1   force =     0.00000000    0.00000000    0.00000000
     atom   21 type  1   force =     0.00000000    0.00000000    0.00000000
     atom   22 type  1   force =     0.00000000    0.00000000    0.00000000
     atom   23 type  1   force =     0.00000000    0.00000000    0.00000000
     atom   24 type  1   force =     0.00000000    0.00000000    0.00000000
     atom   25 type  1   force =     0.00000000    0.00000000    0.00000000
     atom   26 type  1   force =     0.00000000    0.00000000    0.00000000
     atom   27 type  1   force =     0.00000000    0.00000000    0.00000000
     atom   28 type  1   force =     0.00000000    0.00000000    0.00000000
     atom   29 type  1   force =     0.00000000    0.00000000    0.00000000
     atom   30 type  1   force =     0.00000000    0.00000000    0.00000000
     atom   31 type  1   force =     0.00000000    0.00000000    0.00000000
     atom   32 type  1   force =     0.00000000    0.00000000    0.00000000
     atom   33 type  1   force =     0.00000000    0.00000000    0.00000000
     atom   34 type  1   force =     0.00000000    0.00000000    0.00000000
     atom   35 type  1   force =     0.00000000    0.00000000    0.00000000
     atom   36 type  1   force =     0.00000000    0.00000000    0.00000000
     atom   37 type  1   force =     0.00000000    0.00000000    0.00000000
     atom   38 type  1   force =     0.00000000    0.00000000    0.00000000
     atom   39 type  1   force =     0.00000000    0.00000000    0.00000000
     atom   40 type  1   force =     0.00000000    0.00000000    0.00000000
     atom   41 type  1   force =     0.00000000    0.00000000    0.00000000
     atom   42 type  1   force =     0.00000000    0.00000000    0.00000000
     atom   43 type  1   force =     0.00000000    0.00000000    0.00000000
     atom   44 type  1   force =     0.00000000    0.00000000    0.00000000
     atom   45 type  1   force =     0.00000000    0.00000000    0.00000000
     atom   46 type  1   force =     0.00000000    0.00000000    0.00000000
     atom   47 type  1   force =     0.00000000    0.00000000    0.00000000
     atom   48 type  1   force =     0.00000000    0.00000000    0.00000000
     atom   49 type  1   force =     0.00000000    0.00000000    0.00000000
     atom   50 type  1   force =     0.00000000    0.00000000    0.00000000
     atom   51 type  1   force =     0.00000000    0.00000000    0.00000000
     atom   52 type  1   force =     0.00000000    0.00000000    0.00000000
     atom   53 type  1   force =     0.00000000    0.00000000    0.00000000
     atom   54 type  1   force =     0.00000000    0.00000000    0.00000000
     atom   55 type  1   force =     0.00000000    0.00000000    0.00000000
     atom   56 type  1   force =     0.00000000    0.00000000    0.00000000
     atom   57 type  1   force =     0.00000000    0.00000000    0.00000000
     atom   58 type  1   force =     0.00000000    0.00000000    0.00000000
     atom   59 type  1   force =     0.00000000    0.00000000    0.00000000
     atom   60 type  1   force =     0.00000000    0.00000000    0.00000000
     atom   61 type  1   force =     0.00000000    0.00000000    0.00000000
     atom   62 type  1   force =     0.00000000    0.00000000    0.00000000
     atom   63 type  2   force =     0.00000000    0.00000000    0.00000000
     The SCF correction term to forces
     atom    1 type  1   force =     0.00001209    0.00001209   -0.00001008
     atom    2 type  1   force =     0.00000300    0.00000218    0.00000218
     atom    3 type  1   force =     0.00000374   -0.00000950    0.00000374
     atom    4 type  1   force =     0.00000218    0.00000300    0.00000218
     atom    5 type  1   force =    -0.00000950    0.00000374    0.00000374
     atom    6 type  1   force =    -0.00000616   -0.00000616   -0.00000616
     atom    7 type  1   force =     0.00000218    0.00000218    0.00000300
     atom    8 type  1   force =     0.00001152    0.00001152   -0.00000760
     atom    9 type  1   force =    -0.00002783   -0.00002783    0.00003165
     atom   10 type  1   force =     0.00001005   -0.00001487   -0.00000252
     atom   11 type  1   force =     0.00000614    0.00000169    0.00000814
     atom   12 type  1   force =    -0.00001487    0.00001005   -0.00000252
     atom   13 type  1   force =     0.00000169    0.00000614    0.00000814
     atom   14 type  1   force =    -0.00000972   -0.00000972    0.00000012
     atom   15 type  1   force =     0.00000374    0.00000374   -0.00000950
     atom   16 type  1   force =    -0.00000855   -0.00000855   -0.00000335
     atom   17 type  1   force =     0.00000814    0.00000614    0.00000169
     atom   18 type  1   force =     0.00000814    0.00000169    0.00000614
     atom   19 type  1   force =    -0.00000335   -0.00000855   -0.00000855
     atom   20 type  1   force =    -0.00000760    0.00001152    0.00001152
     atom   21 type  1   force =    -0.00000252    0.00001005   -0.00001487
     atom   22 type  1   force =    -0.00000252   -0.00001487    0.00001005
     atom   23 type  1   force =     0.00000012   -0.00000972   -0.00000972
     atom   24 type  1   force =    -0.00002783    0.00003165   -0.00002783
     atom   25 type  1   force =     0.00000614    0.00000814    0.00000169
     atom   26 type  1   force =     0.00001152   -0.00000760    0.00001152
     atom   27 type  1   force =     0.00001005   -0.00000252   -0.00001487
     atom   28 type  1   force =     0.00000169    0.00000814    0.00000614
     atom   29 type  1   force =    -0.00000855   -0.00000335   -0.00000855
     atom   30 type  1   force =     0.00003165   -0.00002783   -0.00002783
     atom   31 type  1   force =    -0.00001487   -0.00000252    0.00001005
     atom   32 type  1   force =    -0.00000681   -0.00000713   -0.00000681
     atom   33 type  1   force =     0.00001263    0.00000292    0.00001263
     atom   34 type  1   force =     0.00001276   -0.00000613   -0.00000613
     atom   35 type  1   force =     0.00001209   -0.00001008    0.00001209
     atom   36 type  1   force =    -0.00000613    0.00001276   -0.00000613
     atom   37 type  1   force =    -0.00001008    0.00001209    0.00001209
     atom   38 type  1   force =    -0.00000932   -0.00000932   -0.00000932
     atom   39 type  1   force =    -0.00000613   -0.00000613    0.00001276
     atom   40 type  1   force =     0.00000442    0.00000442   -0.00001824
     atom   41 type  1   force =    -0.00000757   -0.00000757    0.00002923
     atom   42 type  1   force =     0.00000413   -0.00001066   -0.00000353
     atom   43 type  1   force =    -0.00000918    0.00000536    0.00000354
     atom   44 type  1   force =    -0.00001066    0.00000413   -0.00000353
     atom   45 type  1   force =     0.00000536   -0.00000918    0.00000354
     atom   46 type  1   force =    -0.00001066   -0.00000353    0.00000413
     atom   47 type  1   force =    -0.00000681   -0.00000681   -0.00000713
     atom   48 type  1   force =     0.00002923   -0.00000757   -0.00000757
     atom   49 type  1   force =     0.00000354   -0.00000918    0.00000536
     atom   50 type  1   force =     0.00000354    0.00000536   -0.00000918
     atom   51 type  1   force =     0.00000292    0.00001263    0.00001263
     atom   52 type  1   force =    -0.00001824    0.00000442    0.00000442
     atom   53 type  1   force =    -0.00000353    0.00000413   -0.00001066
     atom   54 type  1   force =    -0.00000353   -0.00001066    0.00000413
     atom   55 type  1   force =    -0.00000713   -0.00000681   -0.00000681
     atom   56 type  1   force =    -0.00000757    0.00002923   -0.00000757
     atom   57 type  1   force =    -0.00000918    0.00000354    0.00000536
     atom   58 type  1   force =     0.00000442   -0.00001824    0.00000442
     atom   59 type  1   force =     0.00000413   -0.00000353   -0.00001066
     atom   60 type  1   force =     0.00000536    0.00000354   -0.00000918
     atom   61 type  1   force =     0.00001263    0.00001263    0.00000292
     atom   62 type  1   force =    -0.00000972    0.00000012   -0.00000972
     atom   63 type  2   force =     0.00000179    0.00000179    0.00000179

     Total force =     0.005364     Total SCF correction =     0.000148

     bfgs converged in   6 scf cycles and   5 bfgs steps
     (criteria: energy <  1.0E-04 Ry, force <  1.0E-03 Ry/Bohr)

     End of BFGS Geometry Optimization

     Final energy   =    -724.7801627940 Ry
Begin final coordinates

ATOMIC_POSITIONS (crystal)
C        0.375725018   0.375725018   0.873721169
C        0.499995922   0.000123179   0.000123179
C        0.500074705   0.000027746   0.500074705
C        0.000123179   0.499995922   0.000123179
C        0.000027746   0.500074705   0.500074705
C       -0.000108717  -0.000108717  -0.000108717
C        0.000123179   0.000123179   0.499995922
C        0.250158836   0.250158836  -0.001317159
C        0.250423266   0.250423266   0.494333880
C        0.250476372   0.748998457   0.001045329
C        0.253044857   0.747531721   0.501506702
C        0.748998457   0.250476372   0.001045329
C        0.747531721   0.253044857   0.501506702
C        0.749689182   0.749689182  -0.000034563
C        0.500074705   0.500074705   0.000027746
C        0.749291727   0.749291727   0.498906246
C        0.501506702   0.253044857   0.747531721
C        0.501506702   0.747531721   0.253044857
C        0.498906246   0.749291727   0.749291727
C       -0.001317159   0.250158836   0.250158836
C        0.001045329   0.250476372   0.748998457
C        0.001045329   0.748998457   0.250476372
C       -0.000034563   0.749689182   0.749689182
C        0.250423266   0.494333880   0.250423266
C        0.253044857   0.501506702   0.747531721
C        0.250158836  -0.001317159   0.250158836
C        0.250476372   0.001045329   0.748998457
C        0.747531721   0.501506702   0.253044857
C        0.749291727   0.498906246   0.749291727
C        0.494333880   0.250423266   0.250423266
C        0.748998457   0.001045329   0.250476372
C        0.624796229   0.874657489   0.624796229
C        0.634297129   0.368799491   0.634297129
C        0.375951711   0.876196636   0.876196636
C        0.375725018   0.873721169   0.375725018
C        0.876196636   0.375951711   0.876196636
C        0.873721169   0.375725018   0.375725018
C        0.874771409   0.874771409   0.874771409
C        0.876196636   0.876196636   0.375951711
C        0.125387298   0.125387298   0.874195458
C        0.123653167   0.123653167   0.374864136
C        0.124577628   0.624614767   0.875761418
C        0.127240866   0.622776358   0.376288464
C        0.624614767   0.124577628   0.875761418
C        0.622776358   0.127240866   0.376288464
C        0.624614767   0.875761418   0.124577628
C        0.624796229   0.624796229   0.874657489
C        0.374864136   0.123653167   0.123653167
C        0.376288464   0.127240866   0.622776358
C        0.376288464   0.622776358   0.127240866
C        0.368799491   0.634297129   0.634297129
C        0.874195458   0.125387298   0.125387298
C        0.875761418   0.124577628   0.624614767
C        0.875761418   0.624614767   0.124577628
C        0.874657489   0.624796229   0.624796229
C        0.123653167   0.374864136   0.123653167
C        0.127240866   0.376288464   0.622776358
C        0.125387298   0.874195458   0.125387298
C        0.124577628   0.875761418   0.624614767
C        0.622776358   0.376288464   0.127240866
C        0.634297129   0.634297129   0.368799491
C        0.749689182  -0.000034563   0.749689182
N        0.363877163   0.363877163   0.363877163
End final coordinates



     Writing output data file di.save
 
     init_run     :      1.93s CPU      2.31s WALL (       1 calls)
     electrons    :    143.82s CPU    146.79s WALL (       7 calls)
     update_pot   :      0.64s CPU      0.67s WALL (       6 calls)
     forces       :      2.72s CPU      2.74s WALL (       7 calls)

     Called by init_run:
     wfcinit      :      0.73s CPU      0.79s WALL (       1 calls)
     wfcinit:atom :      0.01s CPU      0.01s WALL (       2 calls)
     wfcinit:wfcr :      0.68s CPU      0.73s WALL (       2 calls)
     potinit      :      0.15s CPU      0.15s WALL (       2 calls)

     Called by electrons:
     c_bands      :    134.68s CPU    137.48s WALL (      52 calls)
     sum_band     :      6.28s CPU      6.33s WALL (      52 calls)
     v_of_rho     :      2.10s CPU      2.11s WALL (      58 calls)
     v_h          :      0.06s CPU      0.06s WALL (      58 calls)
     v_xc         :      2.04s CPU      2.05s WALL (      58 calls)
     mix_rho      :      0.31s CPU      0.32s WALL (      52 calls)

     Called by c_bands:
     init_us_2    :      1.05s CPU      1.05s WALL (     224 calls)
     cegterg      :    123.94s CPU    126.65s WALL (     104 calls)

     Called by sum_band:

     Called by *egterg:
     h_psi        :     47.94s CPU     48.39s WALL (     599 calls)
     g_psi        :      0.31s CPU      0.31s WALL (     493 calls)
     cdiaghg      :     51.91s CPU     53.00s WALL (     581 calls)
     cegterg:over :      9.70s CPU      9.72s WALL (     493 calls)
     cegterg:upda :      8.22s CPU      8.31s WALL (     493 calls)
     cegterg:last :      3.34s CPU      3.36s WALL (     114 calls)
     cdiaghg:chol :      2.30s CPU      2.35s WALL (     581 calls)
     cdiaghg:inve :      0.95s CPU      0.95s WALL (     581 calls)
     cdiaghg:para :      8.38s CPU      9.03s WALL (    1162 calls)

     Called by h_psi:
     h_psi:pot    :     47.40s CPU     47.84s WALL (     599 calls)
     h_psi:calbec :     10.23s CPU     10.31s WALL (     599 calls)
     vloc_psi     :     26.67s CPU     26.90s WALL (     599 calls)
     add_vuspsi   :     10.50s CPU     10.62s WALL (     599 calls)

     General routines
     calbec       :     12.00s CPU     12.09s WALL (     655 calls)
     fft          :      0.66s CPU      0.84s WALL (    1217 calls)
     fftw         :     27.96s CPU     28.24s WALL (  105868 calls)
 
     Parallel routines
     fft_scatter  :      8.66s CPU      8.36s WALL (  107085 calls)
 
     PWSCF        :  2m32.51s CPU     2m38.40s WALL

 
   This run was terminated on:  15:13:53   8May2020            

=------------------------------------------------------------------------------=
   JOB DONE.
=------------------------------------------------------------------------------=
