
     Program PWSCF v.6.1 (svn rev. 13369) starts on  1Jun2021 at 13:18:31 

     This program is part of the open-source Quantum ESPRESSO suite
     for quantum simulation of materials; please cite
         "P. Giannozzi et al., J. Phys.:Condens. Matter 21 395502 (2009);
          URL http://www.quantum-espresso.org", 
     in publications or presentations arising from this work. More details at
     http://www.quantum-espresso.org/quote

     Parallel version (MPI), running on    32 processors
     K-points division:     npool     =       2
     R & G space division:  proc/nbgrp/npool/nimage =      16
     Reading input from scf.in
Warning: card &IONS ignored
Warning: card / ignored

     Current dimensions of program PWSCF are:
     Max number of different atomic species (ntypx) = 10
     Max number of k-points (npk) =  40000
     Max angular momentum in pseudopotentials (lmaxx) =  3

     Subspace diagonalization in iterative solution of the eigenvalue problem:
     one sub-group per band group will be used
     scalapack distributed-memory algorithm (size of sub-group:  4*  4 procs)

 
     Parallelization info
     --------------------
     sticks:   dense  smooth     PW     G-vecs:    dense   smooth      PW
     Min         252     252     62                12125    12125    1510
     Max         254     254     63                12129    12129    1515
     Sum        4049    4049   1005               194039   194039   24207
 


     bravais-lattice index     =            1
     lattice parameter (alat)  =      13.4862  a.u.
     unit-cell volume          =    2452.8358 (a.u.)^3
     number of atoms/cell      =           63
     number of atomic types    =            2
     number of electrons       =       254.00 (up: 127.00, down: 127.00)
     number of Kohn-Sham states=          152
     kinetic-energy cutoff     =      70.0000  Ry
     charge density cutoff     =     280.0000  Ry
     convergence threshold     =      1.0E-06
     mixing beta               =       0.5000
     number of iterations used =            8  plain     mixing
     Exchange-correlation      = PBE ( 1  4  3  4 0 0)

     celldm(1)=  13.486197  celldm(2)=   0.000000  celldm(3)=   0.000000
     celldm(4)=   0.000000  celldm(5)=   0.000000  celldm(6)=   0.000000

     crystal axes: (cart. coord. in units of alat)
               a(1) = (   1.000000   0.000000   0.000000 )  
               a(2) = (   0.000000   1.000000   0.000000 )  
               a(3) = (   0.000000   0.000000   1.000000 )  

     reciprocal axes: (cart. coord. in units 2 pi/alat)
               b(1) = (  1.000000  0.000000  0.000000 )  
               b(2) = (  0.000000  1.000000  0.000000 )  
               b(3) = (  0.000000  0.000000  1.000000 )  


     PseudoPot. # 1 for C  read from file:
     /export/data/share/tjsmart/Pseudo/C_ONCV_PBE-1.0.upf
     MD5 check sum: 72b63e32b2fd29504de26a4901699f60
     Pseudo is Norm-conserving, Zval =  4.0
     Generated using ONCVPSP code by D. R. Hamann
     Using radial grid of 1248 points,  4 beta functions with: 
                l(1) =   0
                l(2) =   0
                l(3) =   1
                l(4) =   1

     PseudoPot. # 2 for N  read from file:
     /export/data/share/tjsmart/Pseudo/N_ONCV_PBE-1.0.upf
     MD5 check sum: 09890da6b2972017450f7114a6086fad
     Pseudo is Norm-conserving, Zval =  5.0
     Generated using ONCVPSP code by D. R. Hamann
     Using radial grid of 1058 points,  4 beta functions with: 
                l(1) =   0
                l(2) =   0
                l(3) =   1
                l(4) =   1

     atomic species   valence    mass     pseudopotential
        C              4.00    12.01110     C ( 1.00)
        N              5.00    14.00670     N ( 1.00)

     Starting magnetic structure 
     atomic species   magnetization
        C            0.200
        N            0.200

      6 Sym. Ops. (no inversion) found


                                    s                        frac. trans.

      isym =  1     identity                                     

 cryst.   s( 1) = (     1          0          0      )
                  (     0          1          0      )
                  (     0          0          1      )

 cart.    s( 1) = (  1.0000000  0.0000000  0.0000000 )
                  (  0.0000000  1.0000000  0.0000000 )
                  (  0.0000000  0.0000000  1.0000000 )


      isym =  2     120 deg rotation - cart. axis [-1,-1,-1]     

 cryst.   s( 2) = (     0          0          1      )
                  (     1          0          0      )
                  (     0          1          0      )

 cart.    s( 2) = (  0.0000000  1.0000000  0.0000000 )
                  (  0.0000000  0.0000000  1.0000000 )
                  (  1.0000000  0.0000000  0.0000000 )


      isym =  3     120 deg rotation - cart. axis [1,1,1]        

 cryst.   s( 3) = (     0          1          0      )
                  (     0          0          1      )
                  (     1          0          0      )

 cart.    s( 3) = (  0.0000000  0.0000000  1.0000000 )
                  (  1.0000000  0.0000000  0.0000000 )
                  (  0.0000000  1.0000000  0.0000000 )


      isym =  4     inv. 180 deg rotation - cart. axis [1,-1,0]  

 cryst.   s( 4) = (     0          1          0      )
                  (     1          0          0      )
                  (     0          0          1      )

 cart.    s( 4) = (  0.0000000  1.0000000  0.0000000 )
                  (  1.0000000  0.0000000  0.0000000 )
                  (  0.0000000  0.0000000  1.0000000 )


      isym =  5     inv. 180 deg rotation - cart. axis [-1,0,1]  

 cryst.   s( 5) = (     0          0          1      )
                  (     0          1          0      )
                  (     1          0          0      )

 cart.    s( 5) = (  0.0000000  0.0000000  1.0000000 )
                  (  0.0000000  1.0000000  0.0000000 )
                  (  1.0000000  0.0000000  0.0000000 )


      isym =  6     inv. 180 deg rotation - cart. axis [0,1,-1]  

 cryst.   s( 6) = (     1          0          0      )
                  (     0          0          1      )
                  (     0          1          0      )

 cart.    s( 6) = (  1.0000000  0.0000000  0.0000000 )
                  (  0.0000000  0.0000000  1.0000000 )
                  (  0.0000000  1.0000000  0.0000000 )


     point group C_3v (3m)  
     there are  3 classes
     the character table:

       E     2C3   3s_v 
A_1    1.00  1.00  1.00
A_2    1.00  1.00 -1.00
E      2.00 -1.00  0.00

     the symmetry operations in each class and the name of the first element:

     E        1
          identity                                               
     2C3      2    3
          120 deg rotation - cart. axis [-1,-1,-1]               
     3s_v     4    5    6
          inv. 180 deg rotation - cart. axis [1,-1,0]            

   Cartesian axes

     site n.     atom                  positions (alat units)
         1           C   tau(   1) = (   0.3757766   0.3757766   0.8735823  )
         2           C   tau(   2) = (   0.5002498   0.0004187   0.0004187  )
         3           C   tau(   3) = (   0.4999857  -0.0004113   0.4999857  )
         4           C   tau(   4) = (   0.0004187   0.5002498   0.0004187  )
         5           C   tau(   5) = (  -0.0004113   0.4999857   0.4999857  )
         6           C   tau(   6) = (  -0.0001215  -0.0001215  -0.0001215  )
         7           C   tau(   7) = (   0.0004187   0.0004187   0.5002498  )
         8           C   tau(   8) = (   0.2504403   0.2504403  -0.0009221  )
         9           C   tau(   9) = (   0.2513474   0.2513474   0.4962569  )
        10           C   tau(  10) = (   0.2501677   0.7491279   0.0008553  )
        11           C   tau(  11) = (   0.2512089   0.7485652   0.5020796  )
        12           C   tau(  12) = (   0.7491279   0.2501677   0.0008553  )
        13           C   tau(  13) = (   0.7485652   0.2512089   0.5020796  )
        14           C   tau(  14) = (   0.7495183   0.7495183  -0.0008064  )
        15           C   tau(  15) = (   0.4999857   0.4999857  -0.0004113  )
        16           C   tau(  16) = (   0.7485950   0.7485950   0.4983467  )
        17           C   tau(  17) = (   0.5020796   0.2512089   0.7485652  )
        18           C   tau(  18) = (   0.5020796   0.7485652   0.2512089  )
        19           C   tau(  19) = (   0.4983467   0.7485950   0.7485950  )
        20           C   tau(  20) = (  -0.0009221   0.2504403   0.2504403  )
        21           C   tau(  21) = (   0.0008553   0.2501677   0.7491279  )
        22           C   tau(  22) = (   0.0008553   0.7491279   0.2501677  )
        23           C   tau(  23) = (  -0.0008064   0.7495183   0.7495183  )
        24           C   tau(  24) = (   0.2513474   0.4962569   0.2513474  )
        25           C   tau(  25) = (   0.2512089   0.5020796   0.7485652  )
        26           C   tau(  26) = (   0.2504403  -0.0009221   0.2504403  )
        27           C   tau(  27) = (   0.2501677   0.0008553   0.7491279  )
        28           C   tau(  28) = (   0.7485652   0.5020796   0.2512089  )
        29           C   tau(  29) = (   0.7485950   0.4983467   0.7485950  )
        30           C   tau(  30) = (   0.4962569   0.2513474   0.2513474  )
        31           C   tau(  31) = (   0.7491279   0.0008553   0.2501677  )
        32           C   tau(  32) = (   0.6242646   0.8737038   0.6242646  )
        33           C   tau(  33) = (   0.6361377   0.3627458   0.6361377  )
        34           C   tau(  34) = (   0.3756999   0.8762203   0.8762203  )
        35           C   tau(  35) = (   0.3757766   0.8735823   0.3757766  )
        36           C   tau(  36) = (   0.8762203   0.3756999   0.8762203  )
        37           C   tau(  37) = (   0.8735823   0.3757766   0.3757766  )
        38           C   tau(  38) = (   0.8745012   0.8745012   0.8745012  )
        39           C   tau(  39) = (   0.8762203   0.8762203   0.3756999  )
        40           C   tau(  40) = (   0.1253710   0.1253710   0.8744146  )
        41           C   tau(  41) = (   0.1245202   0.1245202   0.3748727  )
        42           C   tau(  42) = (   0.1236457   0.6243394   0.8761297  )
        43           C   tau(  43) = (   0.1266123   0.6234354   0.3763806  )
        44           C   tau(  44) = (   0.6243394   0.1236457   0.8761297  )
        45           C   tau(  45) = (   0.6234354   0.1266123   0.3763806  )
        46           C   tau(  46) = (   0.6243394   0.8761297   0.1236457  )
        47           C   tau(  47) = (   0.6242646   0.6242646   0.8737038  )
        48           C   tau(  48) = (   0.3748727   0.1245202   0.1245202  )
        49           C   tau(  49) = (   0.3763806   0.1266123   0.6234354  )
        50           C   tau(  50) = (   0.3763806   0.6234354   0.1266123  )
        51           C   tau(  51) = (   0.3627458   0.6361377   0.6361377  )
        52           C   tau(  52) = (   0.8744146   0.1253710   0.1253710  )
        53           C   tau(  53) = (   0.8761297   0.1236457   0.6243394  )
        54           C   tau(  54) = (   0.8761297   0.6243394   0.1236457  )
        55           C   tau(  55) = (   0.8737038   0.6242646   0.6242646  )
        56           C   tau(  56) = (   0.1245202   0.3748727   0.1245202  )
        57           C   tau(  57) = (   0.1266123   0.3763806   0.6234354  )
        58           C   tau(  58) = (   0.1253710   0.8744146   0.1253710  )
        59           C   tau(  59) = (   0.1236457   0.8761297   0.6243394  )
        60           C   tau(  60) = (   0.6234354   0.3763806   0.1266123  )
        61           C   tau(  61) = (   0.6361377   0.6361377   0.3627458  )
        62           C   tau(  62) = (   0.7495183  -0.0008064   0.7495183  )
        63           N   tau(  63) = (   0.3676010   0.3676010   0.3676010  )

   Crystallographic axes

     site n.     atom                  positions (cryst. coord.)
         1           C   tau(   1) = (  0.3757766  0.3757766  0.8735823  )
         2           C   tau(   2) = (  0.5002498  0.0004187  0.0004187  )
         3           C   tau(   3) = (  0.4999857 -0.0004113  0.4999857  )
         4           C   tau(   4) = (  0.0004187  0.5002498  0.0004187  )
         5           C   tau(   5) = ( -0.0004113  0.4999857  0.4999857  )
         6           C   tau(   6) = ( -0.0001215 -0.0001215 -0.0001215  )
         7           C   tau(   7) = (  0.0004187  0.0004187  0.5002498  )
         8           C   tau(   8) = (  0.2504403  0.2504403 -0.0009221  )
         9           C   tau(   9) = (  0.2513474  0.2513474  0.4962569  )
        10           C   tau(  10) = (  0.2501677  0.7491279  0.0008553  )
        11           C   tau(  11) = (  0.2512089  0.7485652  0.5020796  )
        12           C   tau(  12) = (  0.7491279  0.2501677  0.0008553  )
        13           C   tau(  13) = (  0.7485652  0.2512089  0.5020796  )
        14           C   tau(  14) = (  0.7495183  0.7495183 -0.0008064  )
        15           C   tau(  15) = (  0.4999857  0.4999857 -0.0004113  )
        16           C   tau(  16) = (  0.7485950  0.7485950  0.4983467  )
        17           C   tau(  17) = (  0.5020796  0.2512089  0.7485652  )
        18           C   tau(  18) = (  0.5020796  0.7485652  0.2512089  )
        19           C   tau(  19) = (  0.4983467  0.7485950  0.7485950  )
        20           C   tau(  20) = ( -0.0009221  0.2504403  0.2504403  )
        21           C   tau(  21) = (  0.0008553  0.2501677  0.7491279  )
        22           C   tau(  22) = (  0.0008553  0.7491279  0.2501677  )
        23           C   tau(  23) = ( -0.0008064  0.7495183  0.7495183  )
        24           C   tau(  24) = (  0.2513474  0.4962569  0.2513474  )
        25           C   tau(  25) = (  0.2512089  0.5020796  0.7485652  )
        26           C   tau(  26) = (  0.2504403 -0.0009221  0.2504403  )
        27           C   tau(  27) = (  0.2501677  0.0008553  0.7491279  )
        28           C   tau(  28) = (  0.7485652  0.5020796  0.2512089  )
        29           C   tau(  29) = (  0.7485950  0.4983467  0.7485950  )
        30           C   tau(  30) = (  0.4962569  0.2513474  0.2513474  )
        31           C   tau(  31) = (  0.7491279  0.0008553  0.2501677  )
        32           C   tau(  32) = (  0.6242646  0.8737038  0.6242646  )
        33           C   tau(  33) = (  0.6361377  0.3627458  0.6361377  )
        34           C   tau(  34) = (  0.3756999  0.8762203  0.8762203  )
        35           C   tau(  35) = (  0.3757766  0.8735823  0.3757766  )
        36           C   tau(  36) = (  0.8762203  0.3756999  0.8762203  )
        37           C   tau(  37) = (  0.8735823  0.3757766  0.3757766  )
        38           C   tau(  38) = (  0.8745012  0.8745012  0.8745012  )
        39           C   tau(  39) = (  0.8762203  0.8762203  0.3756999  )
        40           C   tau(  40) = (  0.1253710  0.1253710  0.8744146  )
        41           C   tau(  41) = (  0.1245202  0.1245202  0.3748727  )
        42           C   tau(  42) = (  0.1236457  0.6243394  0.8761297  )
        43           C   tau(  43) = (  0.1266123  0.6234354  0.3763806  )
        44           C   tau(  44) = (  0.6243394  0.1236457  0.8761297  )
        45           C   tau(  45) = (  0.6234354  0.1266123  0.3763806  )
        46           C   tau(  46) = (  0.6243394  0.8761297  0.1236457  )
        47           C   tau(  47) = (  0.6242646  0.6242646  0.8737038  )
        48           C   tau(  48) = (  0.3748727  0.1245202  0.1245202  )
        49           C   tau(  49) = (  0.3763806  0.1266123  0.6234354  )
        50           C   tau(  50) = (  0.3763806  0.6234354  0.1266123  )
        51           C   tau(  51) = (  0.3627458  0.6361377  0.6361377  )
        52           C   tau(  52) = (  0.8744146  0.1253710  0.1253710  )
        53           C   tau(  53) = (  0.8761297  0.1236457  0.6243394  )
        54           C   tau(  54) = (  0.8761297  0.6243394  0.1236457  )
        55           C   tau(  55) = (  0.8737038  0.6242646  0.6242646  )
        56           C   tau(  56) = (  0.1245202  0.3748727  0.1245202  )
        57           C   tau(  57) = (  0.1266123  0.3763806  0.6234354  )
        58           C   tau(  58) = (  0.1253710  0.8744146  0.1253710  )
        59           C   tau(  59) = (  0.1236457  0.8761297  0.6243394  )
        60           C   tau(  60) = (  0.6234354  0.3763806  0.1266123  )
        61           C   tau(  61) = (  0.6361377  0.6361377  0.3627458  )
        62           C   tau(  62) = (  0.7495183 -0.0008064  0.7495183  )
        63           N   tau(  63) = (  0.3676010  0.3676010  0.3676010  )

     number of k points=     1  Marzari-Vanderbilt smearing, width (Ry)=  0.0010
                       cart. coord. in units 2pi/alat
        k(    1) = (   0.0000000   0.0000000   0.0000000), wk =   1.0000000

                       cryst. coord.
        k(    1) = (   0.0000000   0.0000000   0.0000000), wk =   1.0000000

     Dense  grid:   194039 G-vectors     FFT dimensions: (  72,  72,  72)

     Estimated max dynamical RAM per process >      42.63MB

     Estimated total allocated dynamical RAM >    1364.05MB
     Generating pointlists ...
     new r_m :   0.0856 (alat units)  1.1543 (a.u.) for type    1
     new r_m :   0.0861 (alat units)  1.1614 (a.u.) for type    2

     Initial potential from superposition of free atoms

     starting charge  252.99722, renormalised to  254.00000
     Starting wfc are  252 randomized atomic wfcs

     total cpu time spent up to now is        2.5 secs

     per-process dynamical memory:    49.0 Mb

     Self-consistent Calculation

     iteration #  1     ecut=    70.00 Ry     beta=0.50
     Davidson diagonalization with overlap
     ethr =  1.00E-02,  avg # of iterations =  3.0

     total cpu time spent up to now is        3.6 secs

     total energy              =    -723.95975184 Ry
     Harris-Foulkes estimate   =    -724.47462752 Ry
     estimated scf accuracy    <       4.39683028 Ry

     total magnetization       =    -0.00 Bohr mag/cell
     absolute magnetization    =     0.89 Bohr mag/cell

     iteration #  2     ecut=    70.00 Ry     beta=0.50
     Davidson diagonalization with overlap
     ethr =  1.73E-03,  avg # of iterations =  2.0

     total cpu time spent up to now is        4.3 secs

     total energy              =    -724.27428536 Ry
     Harris-Foulkes estimate   =    -724.21178235 Ry
     estimated scf accuracy    <       0.70843313 Ry

     total magnetization       =    -0.00 Bohr mag/cell
     absolute magnetization    =     0.33 Bohr mag/cell

     iteration #  3     ecut=    70.00 Ry     beta=0.50
     Davidson diagonalization with overlap
     ethr =  2.79E-04,  avg # of iterations =  4.0

     total cpu time spent up to now is        5.3 secs

     total energy              =    -724.34368453 Ry
     Harris-Foulkes estimate   =    -724.39650144 Ry
     estimated scf accuracy    <       0.18502171 Ry

     total magnetization       =    -0.00 Bohr mag/cell
     absolute magnetization    =     0.12 Bohr mag/cell

     iteration #  4     ecut=    70.00 Ry     beta=0.50
     Davidson diagonalization with overlap
     ethr =  7.28E-05,  avg # of iterations =  9.5

     total cpu time spent up to now is        6.8 secs

     total energy              =    -724.38815832 Ry
     Harris-Foulkes estimate   =    -724.38498121 Ry
     estimated scf accuracy    <       0.01199245 Ry

     total magnetization       =    -0.00 Bohr mag/cell
     absolute magnetization    =     0.07 Bohr mag/cell

     iteration #  5     ecut=    70.00 Ry     beta=0.50
     Davidson diagonalization with overlap
     ethr =  4.72E-06,  avg # of iterations = 11.5

     total cpu time spent up to now is        8.6 secs

     total energy              =    -724.39119993 Ry
     Harris-Foulkes estimate   =    -724.39104121 Ry
     estimated scf accuracy    <       0.00152375 Ry

     total magnetization       =     0.00 Bohr mag/cell
     absolute magnetization    =     0.04 Bohr mag/cell

     iteration #  6     ecut=    70.00 Ry     beta=0.50
     Davidson diagonalization with overlap
     ethr =  6.00E-07,  avg # of iterations =  9.5

     total cpu time spent up to now is       10.1 secs

     total energy              =    -724.39148242 Ry
     Harris-Foulkes estimate   =    -724.39150034 Ry
     estimated scf accuracy    <       0.00019062 Ry

     total magnetization       =    -0.00 Bohr mag/cell
     absolute magnetization    =     0.02 Bohr mag/cell

     iteration #  7     ecut=    70.00 Ry     beta=0.50
     Davidson diagonalization with overlap
     ethr =  7.50E-08,  avg # of iterations =  3.0

     total cpu time spent up to now is       11.0 secs

     total energy              =    -724.39153550 Ry
     Harris-Foulkes estimate   =    -724.39154225 Ry
     estimated scf accuracy    <       0.00003072 Ry

     total magnetization       =    -0.00 Bohr mag/cell
     absolute magnetization    =     0.01 Bohr mag/cell

     iteration #  8     ecut=    70.00 Ry     beta=0.50
     Davidson diagonalization with overlap
     ethr =  1.21E-08,  avg # of iterations =  3.0

     total cpu time spent up to now is       11.9 secs

     total energy              =    -724.39154279 Ry
     Harris-Foulkes estimate   =    -724.39154241 Ry
     estimated scf accuracy    <       0.00000229 Ry

     total magnetization       =    -0.00 Bohr mag/cell
     absolute magnetization    =     0.01 Bohr mag/cell

     iteration #  9     ecut=    70.00 Ry     beta=0.50
     Davidson diagonalization with overlap
     ethr =  9.02E-10,  avg # of iterations =  3.0
 
     Magnetic moment per site:
     atom:    1    charge:    1.8337    magn:   -0.0000    constr:    0.0000
     atom:    2    charge:    1.8539    magn:   -0.0000    constr:    0.0000
     atom:    3    charge:    1.8423    magn:    0.0000    constr:    0.0000
     atom:    4    charge:    1.8539    magn:   -0.0000    constr:    0.0000
     atom:    5    charge:    1.8423    magn:    0.0000    constr:    0.0000
     atom:    6    charge:    1.8321    magn:    0.0000    constr:    0.0000
     atom:    7    charge:    1.8539    magn:   -0.0000    constr:    0.0000
     atom:    8    charge:    1.8350    magn:    0.0000    constr:    0.0000
     atom:    9    charge:    1.8079    magn:   -0.0002    constr:    0.0000
     atom:   10    charge:    1.8300    magn:    0.0000    constr:    0.0000
     atom:   11    charge:    1.8440    magn:    0.0000    constr:    0.0000
     atom:   12    charge:    1.8300    magn:    0.0000    constr:    0.0000
     atom:   13    charge:    1.8440    magn:    0.0000    constr:    0.0000
     atom:   14    charge:    1.8340    magn:    0.0000    constr:    0.0000
     atom:   15    charge:    1.8423    magn:    0.0000    constr:    0.0000
     atom:   16    charge:    1.8409    magn:    0.0000    constr:    0.0000
     atom:   17    charge:    1.8440    magn:    0.0000    constr:    0.0000
     atom:   18    charge:    1.8440    magn:    0.0000    constr:    0.0000
     atom:   19    charge:    1.8409    magn:    0.0000    constr:    0.0000
     atom:   20    charge:    1.8350    magn:    0.0000    constr:    0.0000
     atom:   21    charge:    1.8300    magn:    0.0000    constr:    0.0000
     atom:   22    charge:    1.8300    magn:    0.0000    constr:    0.0000
     atom:   23    charge:    1.8340    magn:    0.0000    constr:    0.0000
     atom:   24    charge:    1.8079    magn:   -0.0002    constr:    0.0000
     atom:   25    charge:    1.8440    magn:    0.0000    constr:    0.0000
     atom:   26    charge:    1.8350    magn:    0.0000    constr:    0.0000
     atom:   27    charge:    1.8300    magn:    0.0000    constr:    0.0000
     atom:   28    charge:    1.8440    magn:    0.0000    constr:    0.0000
     atom:   29    charge:    1.8409    magn:    0.0000    constr:    0.0000
     atom:   30    charge:    1.8079    magn:   -0.0002    constr:    0.0000
     atom:   31    charge:    1.8300    magn:    0.0000    constr:    0.0000
     atom:   32    charge:    1.8348    magn:   -0.0000    constr:    0.0000
     atom:   33    charge:    1.8561    magn:   -0.0000    constr:    0.0000
     atom:   34    charge:    1.8316    magn:    0.0000    constr:    0.0000
     atom:   35    charge:    1.8337    magn:   -0.0000    constr:    0.0000
     atom:   36    charge:    1.8316    magn:    0.0000    constr:    0.0000
     atom:   37    charge:    1.8337    magn:   -0.0000    constr:    0.0000
     atom:   38    charge:    1.8387    magn:   -0.0000    constr:    0.0000
     atom:   39    charge:    1.8316    magn:    0.0000    constr:    0.0000
     atom:   40    charge:    1.8380    magn:    0.0000    constr:    0.0000
     atom:   41    charge:    1.8426    magn:    0.0000    constr:    0.0000
     atom:   42    charge:    1.8371    magn:    0.0000    constr:    0.0000
     atom:   43    charge:    1.8328    magn:    0.0000    constr:    0.0000
     atom:   44    charge:    1.8371    magn:    0.0000    constr:    0.0000
     atom:   45    charge:    1.8328    magn:    0.0000    constr:    0.0000
     atom:   46    charge:    1.8371    magn:    0.0000    constr:    0.0000
     atom:   47    charge:    1.8348    magn:   -0.0000    constr:    0.0000
     atom:   48    charge:    1.8426    magn:    0.0000    constr:    0.0000
     atom:   49    charge:    1.8328    magn:    0.0000    constr:    0.0000
     atom:   50    charge:    1.8328    magn:    0.0000    constr:    0.0000
     atom:   51    charge:    1.8561    magn:   -0.0000    constr:    0.0000
     atom:   52    charge:    1.8380    magn:    0.0000    constr:    0.0000
     atom:   53    charge:    1.8371    magn:    0.0000    constr:    0.0000
     atom:   54    charge:    1.8371    magn:    0.0000    constr:    0.0000
     atom:   55    charge:    1.8348    magn:   -0.0000    constr:    0.0000
     atom:   56    charge:    1.8426    magn:    0.0000    constr:    0.0000
     atom:   57    charge:    1.8328    magn:    0.0000    constr:    0.0000
     atom:   58    charge:    1.8380    magn:    0.0000    constr:    0.0000
     atom:   59    charge:    1.8371    magn:    0.0000    constr:    0.0000
     atom:   60    charge:    1.8328    magn:    0.0000    constr:    0.0000
     atom:   61    charge:    1.8561    magn:   -0.0000    constr:    0.0000
     atom:   62    charge:    1.8340    magn:    0.0000    constr:    0.0000
     atom:   63    charge:    2.9462    magn:    0.0007    constr:    0.0000

     total cpu time spent up to now is       12.9 secs

     End of self-consistent calculation

 ------ SPIN UP ------------


          k = 0.0000 0.0000 0.0000 ( 24207 PWs)   bands (ev):

    -8.5292  -6.8701  -6.2654  -6.2654  -6.1538  -6.1538  -5.8612  -4.8842
    -4.1191  -4.1191  -4.0899  -4.0899  -4.0111  -4.0019  -4.0019  -3.9256
    -3.8547  -3.8547  -3.3500  -2.9338  -2.6516  -2.6516  -2.0622  -0.3507
    -0.3507  -0.3296  -0.3002  -0.0768   0.1882   0.1882   0.2917   0.2917
     0.3633   0.6170   0.8435   0.8435   0.9813   0.9885   0.9885   1.0427
     1.0452   1.0452   1.3641   1.3641   3.0943   3.9584   3.9584   4.0658
     4.2106   4.2120   4.2120   4.2597   4.2604   4.2604   4.4235   4.4235
     4.4834   4.4834   4.5658   4.6568   4.6577   4.6588   4.6588   4.7651
     4.7651   4.8886   4.9502   4.9502   5.0601   5.2114   5.2114   5.2908
     5.3416   5.3416   5.3771   5.4093   5.4093   6.0309   6.0309   6.0720
     6.6363   6.6363   6.7124   7.0116   7.0247   7.0247   7.5589   8.3424
     8.3424   8.4020   8.4578   8.4578   8.6519   8.6519   8.7779   8.8038
     8.8038   8.8218   8.8706   8.8706   8.8766   9.2653   9.2709   9.2709
     9.6860   9.6860   9.8737   9.8863   9.9079   9.9096   9.9096   9.9498
     9.9498   9.9754   9.9923   9.9923  10.0806  10.0806  10.2842  10.2934
    10.2934  11.1121  12.3467  12.4622  12.4622  14.0509  15.3161  15.3161
    17.3052  17.3491  17.3491  17.4843  17.5465  17.5465  17.8193  17.9045
    17.9045  18.0122  18.0122  18.3702  18.9340  18.9340  18.9696  20.6292
    20.7780  20.7780  20.8266  20.8991  20.8992  20.9886  20.9893  20.9893

     occupation numbers 
     1.0000   1.0000   1.0000   1.0000   1.0000   1.0000   1.0000   1.0000
     1.0000   1.0000   1.0000   1.0000   1.0000   1.0000   1.0000   1.0000
     1.0000   1.0000   1.0000   1.0000   1.0000   1.0000   1.0000   1.0000
     1.0000   1.0000   1.0000   1.0000   1.0000   1.0000   1.0000   1.0000
     1.0000   1.0000   1.0000   1.0000   1.0000   1.0000   1.0000   1.0000
     1.0000   1.0000   1.0000   1.0000   1.0000   1.0000   1.0000   1.0000
     1.0000   1.0000   1.0000   1.0000   1.0000   1.0000   1.0000   1.0000
     1.0000   1.0000   1.0000   1.0000   1.0000   1.0000   1.0000   1.0000
     1.0000   1.0000   1.0000   1.0000   1.0000   1.0000   1.0000   1.0000
     1.0000   1.0000   1.0000   1.0000   1.0000   1.0000   1.0000   1.0000
     1.0000   1.0000   1.0000   1.0000   1.0000   1.0000   1.0000   1.0000
     1.0000   1.0000   1.0000   1.0000   1.0000   1.0000   1.0000   1.0000
     1.0000   1.0000   1.0000   1.0000   1.0000   1.0000   1.0000   1.0000
     1.0000   1.0000   1.0000   1.0000   1.0000   1.0000   1.0000   1.0000
     1.0000   1.0000   1.0000   1.0000   1.0000   1.0000   1.0000   1.0000
     1.0000   1.0000   1.0000   1.0000   1.0000   1.0000   0.5000   0.5000
     0.0000   0.0000   0.0000   0.0000   0.0000   0.0000   0.0000   0.0000
     0.0000   0.0000   0.0000   0.0000   0.0000   0.0000   0.0000   0.0000
     0.0000   0.0000   0.0000   0.0000   0.0000   0.0000   0.0000   0.0000

 ------ SPIN DOWN ----------


          k = 0.0000 0.0000 0.0000 ( 24207 PWs)   bands (ev):

    -8.5293  -6.8695  -6.2656  -6.2656  -6.1539  -6.1539  -5.8613  -4.8837
    -4.1192  -4.1192  -4.0901  -4.0901  -4.0112  -4.0020  -4.0020  -3.9256
    -3.8548  -3.8548  -3.3501  -2.9338  -2.6517  -2.6517  -2.0622  -0.3509
    -0.3509  -0.3297  -0.3003  -0.0765   0.1881   0.1881   0.2916   0.2916
     0.3632   0.6170   0.8434   0.8434   0.9812   0.9884   0.9884   1.0427
     1.0451   1.0451   1.3640   1.3640   3.0943   3.9585   3.9585   4.0658
     4.2106   4.2120   4.2120   4.2596   4.2603   4.2603   4.4235   4.4235
     4.4833   4.4833   4.5658   4.6567   4.6577   4.6587   4.6587   4.7651
     4.7651   4.8886   4.9501   4.9501   5.0600   5.2114   5.2114   5.2908
     5.3415   5.3415   5.3770   5.4093   5.4093   6.0308   6.0308   6.0719
     6.6364   6.6364   6.7124   7.0116   7.0246   7.0246   7.5588   8.3426
     8.3426   8.4020   8.4578   8.4578   8.6520   8.6520   8.7779   8.8038
     8.8038   8.8218   8.8705   8.8705   8.8766   9.2653   9.2709   9.2709
     9.6861   9.6861   9.8737   9.8863   9.9079   9.9096   9.9096   9.9498
     9.9498   9.9754   9.9923   9.9923  10.0807  10.0807  10.2843  10.2935
    10.2935  11.1125  12.3467  12.4621  12.4621  14.0515  15.3156  15.3156
    17.3053  17.3491  17.3491  17.4843  17.5465  17.5465  17.8194  17.9044
    17.9044  18.0122  18.0122  18.3700  18.9341  18.9341  18.9696  20.6295
    20.7780  20.7780  20.8267  20.8992  20.8993  20.9887  20.9895  20.9896

     occupation numbers 
     1.0000   1.0000   1.0000   1.0000   1.0000   1.0000   1.0000   1.0000
     1.0000   1.0000   1.0000   1.0000   1.0000   1.0000   1.0000   1.0000
     1.0000   1.0000   1.0000   1.0000   1.0000   1.0000   1.0000   1.0000
     1.0000   1.0000   1.0000   1.0000   1.0000   1.0000   1.0000   1.0000
     1.0000   1.0000   1.0000   1.0000   1.0000   1.0000   1.0000   1.0000
     1.0000   1.0000   1.0000   1.0000   1.0000   1.0000   1.0000   1.0000
     1.0000   1.0000   1.0000   1.0000   1.0000   1.0000   1.0000   1.0000
     1.0000   1.0000   1.0000   1.0000   1.0000   1.0000   1.0000   1.0000
     1.0000   1.0000   1.0000   1.0000   1.0000   1.0000   1.0000   1.0000
     1.0000   1.0000   1.0000   1.0000   1.0000   1.0000   1.0000   1.0000
     1.0000   1.0000   1.0000   1.0000   1.0000   1.0000   1.0000   1.0000
     1.0000   1.0000   1.0000   1.0000   1.0000   1.0000   1.0000   1.0000
     1.0000   1.0000   1.0000   1.0000   1.0000   1.0000   1.0000   1.0000
     1.0000   1.0000   1.0000   1.0000   1.0000   1.0000   1.0000   1.0000
     1.0000   1.0000   1.0000   1.0000   1.0000   1.0000   1.0000   1.0000
     1.0000   1.0000   1.0000   1.0000   1.0000   1.0000   0.5000   0.5000
     0.0000   0.0000   0.0000   0.0000   0.0000   0.0000   0.0000   0.0000
     0.0000   0.0000   0.0000   0.0000   0.0000   0.0000   0.0000   0.0000
     0.0000   0.0000   0.0000   0.0000   0.0000   0.0000   0.0000   0.0000

     the spin up/dw Fermi energies are    15.3180   15.3175 ev

!    total energy              =    -724.39154399 Ry
     Harris-Foulkes estimate   =    -724.39154351 Ry
     estimated scf accuracy    <       0.00000040 Ry

     The total energy is the sum of the following terms:

     one-electron contribution =     232.22919492 Ry
     hartree contribution      =      70.06051894 Ry
     xc contribution           =    -226.60282954 Ry
     ewald contribution        =    -800.07777194 Ry
     smearing contrib. (-TS)   =      -0.00065637 Ry

     total magnetization       =    -0.00 Bohr mag/cell
     absolute magnetization    =     0.00 Bohr mag/cell

     convergence has been achieved in   9 iterations

     Writing output data file di.save
 
     init_run     :      0.81s CPU      1.05s WALL (       1 calls)
     electrons    :     10.06s CPU     10.44s WALL (       1 calls)

     Called by init_run:
     wfcinit      :      0.36s CPU      0.41s WALL (       1 calls)
     wfcinit:atom :      0.00s CPU      0.00s WALL (       1 calls)
     wfcinit:wfcr :      0.34s CPU      0.38s WALL (       1 calls)
     potinit      :      0.07s CPU      0.08s WALL (       1 calls)

     Called by electrons:
     c_bands      :      9.07s CPU      9.42s WALL (       9 calls)
     sum_band     :      0.53s CPU      0.54s WALL (       9 calls)
     v_of_rho     :      0.36s CPU      0.37s WALL (      10 calls)
     v_h          :      0.01s CPU      0.01s WALL (      10 calls)
     v_xc         :      0.35s CPU      0.36s WALL (      10 calls)
     mix_rho      :      0.05s CPU      0.06s WALL (       9 calls)

     Called by c_bands:
     init_us_2    :      0.08s CPU      0.08s WALL (      19 calls)
     cegterg      :      8.71s CPU      9.04s WALL (       9 calls)

     Called by sum_band:

     Called by *egterg:
     h_psi        :      4.04s CPU      4.15s WALL (      60 calls)
     g_psi        :      0.02s CPU      0.02s WALL (      50 calls)
     cdiaghg      :      2.90s CPU      3.04s WALL (      59 calls)
     cegterg:over :      0.76s CPU      0.77s WALL (      50 calls)
     cegterg:upda :      0.76s CPU      0.77s WALL (      50 calls)
     cegterg:last :      0.25s CPU      0.26s WALL (       9 calls)
     cdiaghg:chol :      0.24s CPU      0.27s WALL (      59 calls)
     cdiaghg:inve :      0.16s CPU      0.16s WALL (      59 calls)
     cdiaghg:para :      0.23s CPU      0.27s WALL (     118 calls)

     Called by h_psi:
     h_psi:pot    :      3.98s CPU      4.10s WALL (      60 calls)
     h_psi:calbec :      0.87s CPU      0.90s WALL (      60 calls)
     vloc_psi     :      2.23s CPU      2.29s WALL (      60 calls)
     add_vuspsi   :      0.88s CPU      0.91s WALL (      60 calls)

     General routines
     calbec       :      0.87s CPU      0.90s WALL (      60 calls)
     fft          :      0.12s CPU      0.20s WALL (     207 calls)
     fftw         :      2.41s CPU      2.39s WALL (    9172 calls)
 
     Parallel routines
     fft_scatter  :      0.71s CPU      0.74s WALL (    9379 calls)
 
     PWSCF        :    11.48s CPU        13.66s WALL

 
   This run was terminated on:  13:18:45   1Jun2021            

=------------------------------------------------------------------------------=
   JOB DONE.
=------------------------------------------------------------------------------=
