
     Program PWSCF v.6.1 (svn rev. 13369) starts on 12May2020 at 10:26:34 

     This program is part of the open-source Quantum ESPRESSO suite
     for quantum simulation of materials; please cite
         "P. Giannozzi et al., J. Phys.:Condens. Matter 21 395502 (2009);
          URL http://www.quantum-espresso.org", 
     in publications or presentations arising from this work. More details at
     http://www.quantum-espresso.org/quote

     Parallel version (MPI), running on    96 processors
     K-points division:     npool     =       6
     R & G space division:  proc/nbgrp/npool/nimage =      16
     Reading input from scf.in
Warning: card &IONS ignored
Warning: card / ignored

     Current dimensions of program PWSCF are:
     Max number of different atomic species (ntypx) = 10
     Max number of k-points (npk) =  40000
     Max angular momentum in pseudopotentials (lmaxx) =  3

     Subspace diagonalization in iterative solution of the eigenvalue problem:
     a serial algorithm will be used

 
     Parallelization info
     --------------------
     sticks:   dense  smooth     PW     G-vecs:    dense   smooth      PW
     Min         252     252     67                12125    12125    1669
     Max         254     254     68                12129    12129    1672
     Sum        4049    4049   1085               194039   194039   26745
 


     bravais-lattice index     =            1
     lattice parameter (alat)  =      13.4862  a.u.
     unit-cell volume          =    2452.8358 (a.u.)^3
     number of atoms/cell      =           63
     number of atomic types    =            2
     number of electrons       =       254.00 (up: 127.00, down: 127.00)
     number of Kohn-Sham states=          152
     kinetic-energy cutoff     =      70.0000  Ry
     charge density cutoff     =     280.0000  Ry
     convergence threshold     =      1.0E-06
     mixing beta               =       0.5000
     number of iterations used =            8  plain     mixing
     Exchange-correlation      = PBE ( 1  4  3  4 0 0)

     celldm(1)=  13.486197  celldm(2)=   0.000000  celldm(3)=   0.000000
     celldm(4)=   0.000000  celldm(5)=   0.000000  celldm(6)=   0.000000

     crystal axes: (cart. coord. in units of alat)
               a(1) = (   1.000000   0.000000   0.000000 )  
               a(2) = (   0.000000   1.000000   0.000000 )  
               a(3) = (   0.000000   0.000000   1.000000 )  

     reciprocal axes: (cart. coord. in units 2 pi/alat)
               b(1) = (  1.000000  0.000000  0.000000 )  
               b(2) = (  0.000000  1.000000  0.000000 )  
               b(3) = (  0.000000  0.000000  1.000000 )  


     PseudoPot. # 1 for C  read from file:
     /home/tjsmart/Pseudo/C_ONCV_PBE-1.0.upf
     MD5 check sum: 72b63e32b2fd29504de26a4901699f60
     Pseudo is Norm-conserving, Zval =  4.0
     Generated using ONCVPSP code by D. R. Hamann
     Using radial grid of 1248 points,  4 beta functions with: 
                l(1) =   0
                l(2) =   0
                l(3) =   1
                l(4) =   1

     PseudoPot. # 2 for N  read from file:
     /home/tjsmart/Pseudo/N_ONCV_PBE-1.0.upf
     MD5 check sum: 09890da6b2972017450f7114a6086fad
     Pseudo is Norm-conserving, Zval =  5.0
     Generated using ONCVPSP code by D. R. Hamann
     Using radial grid of 1058 points,  4 beta functions with: 
                l(1) =   0
                l(2) =   0
                l(3) =   1
                l(4) =   1

     atomic species   valence    mass     pseudopotential
        C              4.00    12.01110     C ( 1.00)
        N              5.00    14.00670     N ( 1.00)

     Starting magnetic structure 
     atomic species   magnetization
        C            0.200
        N            0.200

      6 Sym. Ops. (no inversion) found


                                    s                        frac. trans.

      isym =  1     identity                                     

 cryst.   s( 1) = (     1          0          0      )
                  (     0          1          0      )
                  (     0          0          1      )

 cart.    s( 1) = (  1.0000000  0.0000000  0.0000000 )
                  (  0.0000000  1.0000000  0.0000000 )
                  (  0.0000000  0.0000000  1.0000000 )


      isym =  2     120 deg rotation - cart. axis [-1,-1,-1]     

 cryst.   s( 2) = (     0          0          1      )
                  (     1          0          0      )
                  (     0          1          0      )

 cart.    s( 2) = (  0.0000000  1.0000000  0.0000000 )
                  (  0.0000000  0.0000000  1.0000000 )
                  (  1.0000000  0.0000000  0.0000000 )


      isym =  3     120 deg rotation - cart. axis [1,1,1]        

 cryst.   s( 3) = (     0          1          0      )
                  (     0          0          1      )
                  (     1          0          0      )

 cart.    s( 3) = (  0.0000000  0.0000000  1.0000000 )
                  (  1.0000000  0.0000000  0.0000000 )
                  (  0.0000000  1.0000000  0.0000000 )


      isym =  4     inv. 180 deg rotation - cart. axis [1,-1,0]  

 cryst.   s( 4) = (     0          1          0      )
                  (     1          0          0      )
                  (     0          0          1      )

 cart.    s( 4) = (  0.0000000  1.0000000  0.0000000 )
                  (  1.0000000  0.0000000  0.0000000 )
                  (  0.0000000  0.0000000  1.0000000 )


      isym =  5     inv. 180 deg rotation - cart. axis [-1,0,1]  

 cryst.   s( 5) = (     0          0          1      )
                  (     0          1          0      )
                  (     1          0          0      )

 cart.    s( 5) = (  0.0000000  0.0000000  1.0000000 )
                  (  0.0000000  1.0000000  0.0000000 )
                  (  1.0000000  0.0000000  0.0000000 )


      isym =  6     inv. 180 deg rotation - cart. axis [0,1,-1]  

 cryst.   s( 6) = (     1          0          0      )
                  (     0          0          1      )
                  (     0          1          0      )

 cart.    s( 6) = (  1.0000000  0.0000000  0.0000000 )
                  (  0.0000000  0.0000000  1.0000000 )
                  (  0.0000000  1.0000000  0.0000000 )


     point group C_3v (3m)  
     there are  3 classes
     the character table:

       E     2C3   3s_v 
A_1    1.00  1.00  1.00
A_2    1.00  1.00 -1.00
E      2.00 -1.00  0.00

     the symmetry operations in each class and the name of the first element:

     E        1
          identity                                               
     2C3      2    3
          120 deg rotation - cart. axis [-1,-1,-1]               
     3s_v     4    5    6
          inv. 180 deg rotation - cart. axis [1,-1,0]            

   Cartesian axes

     site n.     atom                  positions (alat units)
         1           C   tau(   1) = (   0.3757735   0.3757735   0.8735905  )
         2           C   tau(   2) = (   0.5002349   0.0004014   0.0004014  )
         3           C   tau(   3) = (   0.4999909  -0.0003855   0.4999909  )
         4           C   tau(   4) = (   0.0004014   0.5002349   0.0004014  )
         5           C   tau(   5) = (  -0.0003855   0.4999909   0.4999909  )
         6           C   tau(   6) = (  -0.0001208  -0.0001208  -0.0001208  )
         7           C   tau(   7) = (   0.0004014   0.0004014   0.5002349  )
         8           C   tau(   8) = (   0.2504238   0.2504238  -0.0009453  )
         9           C   tau(   9) = (   0.2512930   0.2512930   0.4961438  )
        10           C   tau(  10) = (   0.2501858   0.7491203   0.0008665  )
        11           C   tau(  11) = (   0.2513169   0.7485044   0.5020459  )
        12           C   tau(  12) = (   0.7491203   0.2501858   0.0008665  )
        13           C   tau(  13) = (   0.7485044   0.2513169   0.5020459  )
        14           C   tau(  14) = (   0.7495283   0.7495283  -0.0007610  )
        15           C   tau(  15) = (   0.4999909   0.4999909  -0.0003855  )
        16           C   tau(  16) = (   0.7486360   0.7486360   0.4983796  )
        17           C   tau(  17) = (   0.5020459   0.2513169   0.7485044  )
        18           C   tau(  18) = (   0.5020459   0.7485044   0.2513169  )
        19           C   tau(  19) = (   0.4983796   0.7486360   0.7486360  )
        20           C   tau(  20) = (  -0.0009453   0.2504238   0.2504238  )
        21           C   tau(  21) = (   0.0008665   0.2501858   0.7491203  )
        22           C   tau(  22) = (   0.0008665   0.7491203   0.2501858  )
        23           C   tau(  23) = (  -0.0007610   0.7495283   0.7495283  )
        24           C   tau(  24) = (   0.2512930   0.4961438   0.2512930  )
        25           C   tau(  25) = (   0.2513169   0.5020459   0.7485044  )
        26           C   tau(  26) = (   0.2504238  -0.0009453   0.2504238  )
        27           C   tau(  27) = (   0.2501858   0.0008665   0.7491203  )
        28           C   tau(  28) = (   0.7485044   0.5020459   0.2513169  )
        29           C   tau(  29) = (   0.7486360   0.4983796   0.7486360  )
        30           C   tau(  30) = (   0.4961438   0.2512930   0.2512930  )
        31           C   tau(  31) = (   0.7491203   0.0008665   0.2501858  )
        32           C   tau(  32) = (   0.6242958   0.8737599   0.6242958  )
        33           C   tau(  33) = (   0.6360294   0.3631019   0.6360294  )
        34           C   tau(  34) = (   0.3757148   0.8762189   0.8762189  )
        35           C   tau(  35) = (   0.3757735   0.8735905   0.3757735  )
        36           C   tau(  36) = (   0.8762189   0.3757148   0.8762189  )
        37           C   tau(  37) = (   0.8735905   0.3757735   0.3757735  )
        38           C   tau(  38) = (   0.8745171   0.8745171   0.8745171  )
        39           C   tau(  39) = (   0.8762189   0.8762189   0.3757148  )
        40           C   tau(  40) = (   0.1253719   0.1253719   0.8744017  )
        41           C   tau(  41) = (   0.1244692   0.1244692   0.3748722  )
        42           C   tau(  42) = (   0.1237005   0.6243556   0.8761080  )
        43           C   tau(  43) = (   0.1266493   0.6233967   0.3763752  )
        44           C   tau(  44) = (   0.6243556   0.1237005   0.8761080  )
        45           C   tau(  45) = (   0.6233967   0.1266493   0.3763752  )
        46           C   tau(  46) = (   0.6243556   0.8761080   0.1237005  )
        47           C   tau(  47) = (   0.6242958   0.6242958   0.8737599  )
        48           C   tau(  48) = (   0.3748722   0.1244692   0.1244692  )
        49           C   tau(  49) = (   0.3763752   0.1266493   0.6233967  )
        50           C   tau(  50) = (   0.3763752   0.6233967   0.1266493  )
        51           C   tau(  51) = (   0.3631019   0.6360294   0.6360294  )
        52           C   tau(  52) = (   0.8744017   0.1253719   0.1253719  )
        53           C   tau(  53) = (   0.8761080   0.1237005   0.6243556  )
        54           C   tau(  54) = (   0.8761080   0.6243556   0.1237005  )
        55           C   tau(  55) = (   0.8737599   0.6242958   0.6242958  )
        56           C   tau(  56) = (   0.1244692   0.3748722   0.1244692  )
        57           C   tau(  57) = (   0.1266493   0.3763752   0.6233967  )
        58           C   tau(  58) = (   0.1253719   0.8744017   0.1253719  )
        59           C   tau(  59) = (   0.1237005   0.8761080   0.6243556  )
        60           C   tau(  60) = (   0.6233967   0.3763752   0.1266493  )
        61           C   tau(  61) = (   0.6360294   0.6360294   0.3631019  )
        62           C   tau(  62) = (   0.7495283  -0.0007610   0.7495283  )
        63           N   tau(  63) = (   0.3673819   0.3673819   0.3673819  )

   Crystallographic axes

     site n.     atom                  positions (cryst. coord.)
         1           C   tau(   1) = (  0.3757735  0.3757735  0.8735905  )
         2           C   tau(   2) = (  0.5002349  0.0004014  0.0004014  )
         3           C   tau(   3) = (  0.4999909 -0.0003855  0.4999909  )
         4           C   tau(   4) = (  0.0004014  0.5002349  0.0004014  )
         5           C   tau(   5) = ( -0.0003855  0.4999909  0.4999909  )
         6           C   tau(   6) = ( -0.0001208 -0.0001208 -0.0001208  )
         7           C   tau(   7) = (  0.0004014  0.0004014  0.5002349  )
         8           C   tau(   8) = (  0.2504238  0.2504238 -0.0009453  )
         9           C   tau(   9) = (  0.2512930  0.2512930  0.4961438  )
        10           C   tau(  10) = (  0.2501858  0.7491203  0.0008665  )
        11           C   tau(  11) = (  0.2513169  0.7485044  0.5020459  )
        12           C   tau(  12) = (  0.7491203  0.2501858  0.0008665  )
        13           C   tau(  13) = (  0.7485044  0.2513169  0.5020459  )
        14           C   tau(  14) = (  0.7495283  0.7495283 -0.0007610  )
        15           C   tau(  15) = (  0.4999909  0.4999909 -0.0003855  )
        16           C   tau(  16) = (  0.7486360  0.7486360  0.4983796  )
        17           C   tau(  17) = (  0.5020459  0.2513169  0.7485044  )
        18           C   tau(  18) = (  0.5020459  0.7485044  0.2513169  )
        19           C   tau(  19) = (  0.4983796  0.7486360  0.7486360  )
        20           C   tau(  20) = ( -0.0009453  0.2504238  0.2504238  )
        21           C   tau(  21) = (  0.0008665  0.2501858  0.7491203  )
        22           C   tau(  22) = (  0.0008665  0.7491203  0.2501858  )
        23           C   tau(  23) = ( -0.0007610  0.7495283  0.7495283  )
        24           C   tau(  24) = (  0.2512930  0.4961438  0.2512930  )
        25           C   tau(  25) = (  0.2513169  0.5020459  0.7485044  )
        26           C   tau(  26) = (  0.2504238 -0.0009453  0.2504238  )
        27           C   tau(  27) = (  0.2501858  0.0008665  0.7491203  )
        28           C   tau(  28) = (  0.7485044  0.5020459  0.2513169  )
        29           C   tau(  29) = (  0.7486360  0.4983796  0.7486360  )
        30           C   tau(  30) = (  0.4961438  0.2512930  0.2512930  )
        31           C   tau(  31) = (  0.7491203  0.0008665  0.2501858  )
        32           C   tau(  32) = (  0.6242958  0.8737599  0.6242958  )
        33           C   tau(  33) = (  0.6360294  0.3631019  0.6360294  )
        34           C   tau(  34) = (  0.3757148  0.8762189  0.8762189  )
        35           C   tau(  35) = (  0.3757735  0.8735905  0.3757735  )
        36           C   tau(  36) = (  0.8762189  0.3757148  0.8762189  )
        37           C   tau(  37) = (  0.8735905  0.3757735  0.3757735  )
        38           C   tau(  38) = (  0.8745171  0.8745171  0.8745171  )
        39           C   tau(  39) = (  0.8762189  0.8762189  0.3757148  )
        40           C   tau(  40) = (  0.1253719  0.1253719  0.8744017  )
        41           C   tau(  41) = (  0.1244692  0.1244692  0.3748722  )
        42           C   tau(  42) = (  0.1237005  0.6243556  0.8761080  )
        43           C   tau(  43) = (  0.1266493  0.6233967  0.3763752  )
        44           C   tau(  44) = (  0.6243556  0.1237005  0.8761080  )
        45           C   tau(  45) = (  0.6233967  0.1266493  0.3763752  )
        46           C   tau(  46) = (  0.6243556  0.8761080  0.1237005  )
        47           C   tau(  47) = (  0.6242958  0.6242958  0.8737599  )
        48           C   tau(  48) = (  0.3748722  0.1244692  0.1244692  )
        49           C   tau(  49) = (  0.3763752  0.1266493  0.6233967  )
        50           C   tau(  50) = (  0.3763752  0.6233967  0.1266493  )
        51           C   tau(  51) = (  0.3631019  0.6360294  0.6360294  )
        52           C   tau(  52) = (  0.8744017  0.1253719  0.1253719  )
        53           C   tau(  53) = (  0.8761080  0.1237005  0.6243556  )
        54           C   tau(  54) = (  0.8761080  0.6243556  0.1237005  )
        55           C   tau(  55) = (  0.8737599  0.6242958  0.6242958  )
        56           C   tau(  56) = (  0.1244692  0.3748722  0.1244692  )
        57           C   tau(  57) = (  0.1266493  0.3763752  0.6233967  )
        58           C   tau(  58) = (  0.1253719  0.8744017  0.1253719  )
        59           C   tau(  59) = (  0.1237005  0.8761080  0.6243556  )
        60           C   tau(  60) = (  0.6233967  0.3763752  0.1266493  )
        61           C   tau(  61) = (  0.6360294  0.6360294  0.3631019  )
        62           C   tau(  62) = (  0.7495283 -0.0007610  0.7495283  )
        63           N   tau(  63) = (  0.3673819  0.3673819  0.3673819  )

     number of k points=     6  Marzari-Vanderbilt smearing, width (Ry)=  0.0010
                       cart. coord. in units 2pi/alat
        k(    1) = (   0.0000000   0.0000000   0.0000000), wk =   0.0370370
        k(    2) = (   0.0000000   0.0000000   0.3333333), wk =   0.2222222
        k(    3) = (   0.0000000   0.3333333   0.3333333), wk =   0.2222222
        k(    4) = (   0.3333333   0.3333333   0.3333333), wk =   0.0740741
        k(    5) = (  -0.3333333   0.0000000   0.3333333), wk =   0.2222222
        k(    6) = (   0.3333333  -0.3333333   0.3333333), wk =   0.2222222

                       cryst. coord.
        k(    1) = (   0.0000000   0.0000000   0.0000000), wk =   0.0370370
        k(    2) = (   0.0000000   0.0000000   0.3333333), wk =   0.2222222
        k(    3) = (   0.0000000   0.3333333   0.3333333), wk =   0.2222222
        k(    4) = (   0.3333333   0.3333333   0.3333333), wk =   0.0740741
        k(    5) = (  -0.3333333   0.0000000   0.3333333), wk =   0.2222222
        k(    6) = (   0.3333333  -0.3333333   0.3333333), wk =   0.2222222

     Dense  grid:   194039 G-vectors     FFT dimensions: (  72,  72,  72)

     Estimated max dynamical RAM per process >      60.23MB

     Estimated total allocated dynamical RAM >    5782.56MB
     Generating pointlists ...
     new r_m :   0.0856 (alat units)  1.1549 (a.u.) for type    1
     new r_m :   0.0861 (alat units)  1.1607 (a.u.) for type    2

     Initial potential from superposition of free atoms

     starting charge  252.99722, renormalised to  254.00000
     Starting wfc are  252 randomized atomic wfcs

     total cpu time spent up to now is        3.6 secs

     per-process dynamical memory:    59.5 Mb

     Self-consistent Calculation

     iteration #  1     ecut=    70.00 Ry     beta=0.50
     Davidson diagonalization with overlap
     ethr =  1.00E-02,  avg # of iterations =  3.0

     total cpu time spent up to now is        5.9 secs

     total energy              =    -724.33503967 Ry
     Harris-Foulkes estimate   =    -724.78310380 Ry
     estimated scf accuracy    <       4.23629371 Ry

     total magnetization       =     0.00 Bohr mag/cell
     absolute magnetization    =     0.90 Bohr mag/cell

     iteration #  2     ecut=    70.00 Ry     beta=0.50
     Davidson diagonalization with overlap
     ethr =  1.67E-03,  avg # of iterations =  2.0

     total cpu time spent up to now is        7.3 secs

     total energy              =    -724.66202221 Ry
     Harris-Foulkes estimate   =    -724.57974426 Ry
     estimated scf accuracy    <       0.67030935 Ry

     total magnetization       =     0.00 Bohr mag/cell
     absolute magnetization    =     0.35 Bohr mag/cell

     iteration #  3     ecut=    70.00 Ry     beta=0.50
     Davidson diagonalization with overlap
     ethr =  2.64E-04,  avg # of iterations =  8.8

     total cpu time spent up to now is       11.4 secs

     total energy              =    -724.73166252 Ry
     Harris-Foulkes estimate   =    -724.77262359 Ry
     estimated scf accuracy    <       0.15188147 Ry

     total magnetization       =     0.00 Bohr mag/cell
     absolute magnetization    =     0.11 Bohr mag/cell

     iteration #  4     ecut=    70.00 Ry     beta=0.50
     Davidson diagonalization with overlap
     ethr =  5.98E-05,  avg # of iterations =  7.6

     total cpu time spent up to now is       15.1 secs

     total energy              =    -724.77000354 Ry
     Harris-Foulkes estimate   =    -724.76760253 Ry
     estimated scf accuracy    <       0.01314023 Ry

     total magnetization       =    -0.00 Bohr mag/cell
     absolute magnetization    =     0.07 Bohr mag/cell

     iteration #  5     ecut=    70.00 Ry     beta=0.50
     Davidson diagonalization with overlap
     ethr =  5.17E-06,  avg # of iterations =  8.2

     total cpu time spent up to now is       19.5 secs

     total energy              =    -724.77330761 Ry
     Harris-Foulkes estimate   =    -724.77302840 Ry
     estimated scf accuracy    <       0.00153003 Ry

     total magnetization       =     0.00 Bohr mag/cell
     absolute magnetization    =     0.04 Bohr mag/cell

     iteration #  6     ecut=    70.00 Ry     beta=0.50
     Davidson diagonalization with overlap
     ethr =  6.02E-07,  avg # of iterations =  5.2

     total cpu time spent up to now is       22.7 secs

     total energy              =    -724.77356387 Ry
     Harris-Foulkes estimate   =    -724.77358742 Ry
     estimated scf accuracy    <       0.00020045 Ry

     total magnetization       =     0.00 Bohr mag/cell
     absolute magnetization    =     0.02 Bohr mag/cell

     iteration #  7     ecut=    70.00 Ry     beta=0.50
     Davidson diagonalization with overlap
     ethr =  7.89E-08,  avg # of iterations =  3.0

     total cpu time spent up to now is       24.7 secs

     total energy              =    -724.77362050 Ry
     Harris-Foulkes estimate   =    -724.77362977 Ry
     estimated scf accuracy    <       0.00003697 Ry

     total magnetization       =    -0.00 Bohr mag/cell
     absolute magnetization    =     0.01 Bohr mag/cell

     iteration #  8     ecut=    70.00 Ry     beta=0.50
     Davidson diagonalization with overlap
     ethr =  1.46E-08,  avg # of iterations =  2.8

     total cpu time spent up to now is       26.5 secs

     total energy              =    -724.77362859 Ry
     Harris-Foulkes estimate   =    -724.77362851 Ry
     estimated scf accuracy    <       0.00000291 Ry

     total magnetization       =     0.00 Bohr mag/cell
     absolute magnetization    =     0.01 Bohr mag/cell

     iteration #  9     ecut=    70.00 Ry     beta=0.50
     Davidson diagonalization with overlap
     ethr =  1.15E-09,  avg # of iterations =  3.1
 
     Magnetic moment per site:
     atom:    1    charge:    1.8319    magn:   -0.0000    constr:    0.0000
     atom:    2    charge:    1.8522    magn:   -0.0000    constr:    0.0000
     atom:    3    charge:    1.8405    magn:    0.0000    constr:    0.0000
     atom:    4    charge:    1.8522    magn:   -0.0000    constr:    0.0000
     atom:    5    charge:    1.8405    magn:    0.0000    constr:    0.0000
     atom:    6    charge:    1.8298    magn:    0.0000    constr:    0.0000
     atom:    7    charge:    1.8522    magn:   -0.0000    constr:    0.0000
     atom:    8    charge:    1.8331    magn:    0.0000    constr:    0.0000
     atom:    9    charge:    1.8074    magn:   -0.0001    constr:    0.0000
     atom:   10    charge:    1.8282    magn:    0.0000    constr:    0.0000
     atom:   11    charge:    1.8428    magn:    0.0000    constr:    0.0000
     atom:   12    charge:    1.8282    magn:    0.0000    constr:    0.0000
     atom:   13    charge:    1.8428    magn:    0.0000    constr:    0.0000
     atom:   14    charge:    1.8323    magn:    0.0000    constr:    0.0000
     atom:   15    charge:    1.8405    magn:    0.0000    constr:    0.0000
     atom:   16    charge:    1.8400    magn:    0.0000    constr:    0.0000
     atom:   17    charge:    1.8428    magn:    0.0000    constr:    0.0000
     atom:   18    charge:    1.8428    magn:    0.0000    constr:    0.0000
     atom:   19    charge:    1.8400    magn:    0.0000    constr:    0.0000
     atom:   20    charge:    1.8331    magn:    0.0000    constr:    0.0000
     atom:   21    charge:    1.8282    magn:    0.0000    constr:    0.0000
     atom:   22    charge:    1.8282    magn:    0.0000    constr:    0.0000
     atom:   23    charge:    1.8323    magn:    0.0000    constr:    0.0000
     atom:   24    charge:    1.8074    magn:   -0.0001    constr:    0.0000
     atom:   25    charge:    1.8428    magn:    0.0000    constr:    0.0000
     atom:   26    charge:    1.8331    magn:    0.0000    constr:    0.0000
     atom:   27    charge:    1.8282    magn:    0.0000    constr:    0.0000
     atom:   28    charge:    1.8428    magn:    0.0000    constr:    0.0000
     atom:   29    charge:    1.8400    magn:    0.0000    constr:    0.0000
     atom:   30    charge:    1.8074    magn:   -0.0001    constr:    0.0000
     atom:   31    charge:    1.8282    magn:    0.0000    constr:    0.0000
     atom:   32    charge:    1.8328    magn:    0.0000    constr:    0.0000
     atom:   33    charge:    1.8512    magn:    0.0000    constr:    0.0000
     atom:   34    charge:    1.8298    magn:    0.0000    constr:    0.0000
     atom:   35    charge:    1.8319    magn:   -0.0000    constr:    0.0000
     atom:   36    charge:    1.8298    magn:    0.0000    constr:    0.0000
     atom:   37    charge:    1.8319    magn:   -0.0000    constr:    0.0000
     atom:   38    charge:    1.8363    magn:    0.0000    constr:    0.0000
     atom:   39    charge:    1.8298    magn:    0.0000    constr:    0.0000
     atom:   40    charge:    1.8359    magn:    0.0000    constr:    0.0000
     atom:   41    charge:    1.8412    magn:    0.0000    constr:    0.0000
     atom:   42    charge:    1.8351    magn:    0.0000    constr:    0.0000
     atom:   43    charge:    1.8305    magn:    0.0000    constr:    0.0000
     atom:   44    charge:    1.8351    magn:    0.0000    constr:    0.0000
     atom:   45    charge:    1.8305    magn:    0.0000    constr:    0.0000
     atom:   46    charge:    1.8351    magn:    0.0000    constr:    0.0000
     atom:   47    charge:    1.8328    magn:    0.0000    constr:    0.0000
     atom:   48    charge:    1.8412    magn:    0.0000    constr:    0.0000
     atom:   49    charge:    1.8305    magn:    0.0000    constr:    0.0000
     atom:   50    charge:    1.8305    magn:    0.0000    constr:    0.0000
     atom:   51    charge:    1.8512    magn:    0.0000    constr:    0.0000
     atom:   52    charge:    1.8359    magn:    0.0000    constr:    0.0000
     atom:   53    charge:    1.8351    magn:    0.0000    constr:    0.0000
     atom:   54    charge:    1.8351    magn:    0.0000    constr:    0.0000
     atom:   55    charge:    1.8328    magn:    0.0000    constr:    0.0000
     atom:   56    charge:    1.8412    magn:    0.0000    constr:    0.0000
     atom:   57    charge:    1.8305    magn:    0.0000    constr:    0.0000
     atom:   58    charge:    1.8359    magn:    0.0000    constr:    0.0000
     atom:   59    charge:    1.8351    magn:    0.0000    constr:    0.0000
     atom:   60    charge:    1.8305    magn:    0.0000    constr:    0.0000
     atom:   61    charge:    1.8512    magn:    0.0000    constr:    0.0000
     atom:   62    charge:    1.8323    magn:    0.0000    constr:    0.0000
     atom:   63    charge:    2.9375    magn:    0.0007    constr:    0.0000

     total cpu time spent up to now is       28.8 secs

     End of self-consistent calculation

 ------ SPIN UP ------------


          k = 0.0000 0.0000 0.0000 ( 24207 PWs)   bands (ev):

    -8.5522  -6.9001  -6.2892  -6.2892  -6.1793  -6.1793  -5.8847  -4.9133
    -4.1464  -4.1464  -4.1142  -4.1142  -4.0357  -4.0312  -4.0312  -3.9483
    -3.8815  -3.8815  -3.3673  -2.9648  -2.6836  -2.6836  -2.1061  -0.3769
    -0.3769  -0.3571  -0.3268  -0.1097   0.1615   0.1615   0.2698   0.2698
     0.3450   0.5871   0.8120   0.8120   0.9531   0.9542   0.9542   1.0130
     1.0149   1.0149   1.3226   1.3226   3.0634   3.9278   3.9278   4.0360
     4.1801   4.1801   4.1806   4.2288   4.2329   4.2329   4.3944   4.3944
     4.4556   4.4556   4.5405   4.6302   4.6302   4.6304   4.6328   4.7385
     4.7385   4.8659   4.9262   4.9262   5.0310   5.1827   5.1827   5.2630
     5.3153   5.3153   5.3492   5.3784   5.3784   6.0033   6.0033   6.0403
     6.6037   6.6037   6.6833   6.9773   6.9918   6.9918   7.5247   8.3094
     8.3094   8.3672   8.4244   8.4244   8.6167   8.6167   8.7447   8.7717
     8.7717   8.7854   8.8351   8.8351   8.8449   9.2255   9.2332   9.2332
     9.6508   9.6508   9.8390   9.8538   9.8750   9.8750   9.8773   9.9234
     9.9234   9.9435   9.9582   9.9582  10.0448  10.0448  10.2474  10.2485
    10.2485  11.0784  12.3033  12.4239  12.4239  14.0014  15.2738  15.2738
    17.2883  17.3269  17.3269  17.4694  17.5284  17.5284  17.7959  17.8838
    17.8838  17.9855  17.9855  18.3449  18.8998  18.8998  18.9351  20.6072
    20.7537  20.7537  20.8010  20.8791  20.8791  20.9666  20.9666  20.9707

     occupation numbers 
     1.0000   1.0000   1.0000   1.0000   1.0000   1.0000   1.0000   1.0000
     1.0000   1.0000   1.0000   1.0000   1.0000   1.0000   1.0000   1.0000
     1.0000   1.0000   1.0000   1.0000   1.0000   1.0000   1.0000   1.0000
     1.0000   1.0000   1.0000   1.0000   1.0000   1.0000   1.0000   1.0000
     1.0000   1.0000   1.0000   1.0000   1.0000   1.0000   1.0000   1.0000
     1.0000   1.0000   1.0000   1.0000   1.0000   1.0000   1.0000   1.0000
     1.0000   1.0000   1.0000   1.0000   1.0000   1.0000   1.0000   1.0000
     1.0000   1.0000   1.0000   1.0000   1.0000   1.0000   1.0000   1.0000
     1.0000   1.0000   1.0000   1.0000   1.0000   1.0000   1.0000   1.0000
     1.0000   1.0000   1.0000   1.0000   1.0000   1.0000   1.0000   1.0000
     1.0000   1.0000   1.0000   1.0000   1.0000   1.0000   1.0000   1.0000
     1.0000   1.0000   1.0000   1.0000   1.0000   1.0000   1.0000   1.0000
     1.0000   1.0000   1.0000   1.0000   1.0000   1.0000   1.0000   1.0000
     1.0000   1.0000   1.0000   1.0000   1.0000   1.0000   1.0000   1.0000
     1.0000   1.0000   1.0000   1.0000   1.0000   1.0000   1.0000   1.0000
     1.0000   1.0000   1.0000   1.0000   1.0000   1.0000   0.0000   0.0000
     0.0000   0.0000   0.0000   0.0000   0.0000   0.0000   0.0000   0.0000
     0.0000   0.0000   0.0000   0.0000   0.0000   0.0000   0.0000   0.0000
     0.0000   0.0000   0.0000   0.0000   0.0000   0.0000   0.0000   0.0000

          k = 0.0000 0.0000 0.3333 ( 24280 PWs)   bands (ev):

    -8.3181  -7.5524  -6.5234  -6.0437  -5.9378  -5.8246  -5.4891  -5.3036
    -5.1874  -4.9845  -4.5117  -4.1176  -3.8268  -3.7948  -3.6932  -3.4354
    -3.2213  -3.1548  -2.9351  -2.5994  -2.5154  -2.3982  -2.3229  -1.7726
    -0.8301  -0.7021  -0.5946  -0.3476   0.1824   0.2783   0.3452   0.3888
     0.4691   0.5502   0.5683   0.6563   0.7238   0.7475   0.9706   1.4744
     1.9923   2.0085   2.1415   2.2331   2.4070   2.4786   2.4792   2.7397
     2.9516   2.9972   3.1588   3.1669   3.8945   3.9769   4.0466   4.0590
     4.2841   4.3703   4.5124   4.5506   5.0891   5.1108   5.1424   5.1968
     5.1986   5.5998   5.6136   5.7133   5.7303   6.0668   6.1086   6.1734
     6.1867   6.3210   6.4008   6.4503   6.4928   6.6100   6.6232   6.7464
     6.7504   6.8807   6.8968   6.9287   7.1351   7.1578   7.1805   7.2518
     7.4189   7.4671   7.6706   7.7717   7.8287   8.0437   8.1484   8.2692
     8.2924   8.4341   8.6785   8.7022   8.7625   9.0996   9.1825   9.3531
     9.3735   9.6304   9.6509   9.7104   9.7639   9.9111   9.9315   9.9404
     9.9637  10.0011  10.1013  10.1185  10.1563  10.2648  10.2709  10.3587
    10.3675  11.3731  11.6993  11.7230  12.0434  13.7642  14.9682  15.1450
    17.1924  17.2922  17.9453  18.3088  18.3501  18.4820  18.5086  18.6119
    18.8220  18.8338  18.9871  19.0802  19.2063  19.8268  19.8602  20.4774
    20.6623  20.6851  20.7845  20.7852  20.8257  20.8556  20.9059  20.9446

     occupation numbers 
     1.0000   1.0000   1.0000   1.0000   1.0000   1.0000   1.0000   1.0000
     1.0000   1.0000   1.0000   1.0000   1.0000   1.0000   1.0000   1.0000
     1.0000   1.0000   1.0000   1.0000   1.0000   1.0000   1.0000   1.0000
     1.0000   1.0000   1.0000   1.0000   1.0000   1.0000   1.0000   1.0000
     1.0000   1.0000   1.0000   1.0000   1.0000   1.0000   1.0000   1.0000
     1.0000   1.0000   1.0000   1.0000   1.0000   1.0000   1.0000   1.0000
     1.0000   1.0000   1.0000   1.0000   1.0000   1.0000   1.0000   1.0000
     1.0000   1.0000   1.0000   1.0000   1.0000   1.0000   1.0000   1.0000
     1.0000   1.0000   1.0000   1.0000   1.0000   1.0000   1.0000   1.0000
     1.0000   1.0000   1.0000   1.0000   1.0000   1.0000   1.0000   1.0000
     1.0000   1.0000   1.0000   1.0000   1.0000   1.0000   1.0000   1.0000
     1.0000   1.0000   1.0000   1.0000   1.0000   1.0000   1.0000   1.0000
     1.0000   1.0000   1.0000   1.0000   1.0000   1.0000   1.0000   1.0000
     1.0000   1.0000   1.0000   1.0000   1.0000   1.0000   1.0000   1.0000
     1.0000   1.0000   1.0000   1.0000   1.0000   1.0000   1.0000   1.0000
     1.0000   1.0000   1.0000   1.0000   1.0000   1.0000   1.0000   0.0000
     0.0000   0.0000   0.0000   0.0000   0.0000   0.0000   0.0000   0.0000
     0.0000   0.0000   0.0000   0.0000   0.0000   0.0000   0.0000   0.0000
     0.0000   0.0000   0.0000   0.0000   0.0000   0.0000   0.0000   0.0000

          k = 0.0000 0.3333 0.3333 ( 24236 PWs)   bands (ev):

    -8.0965  -7.3613  -7.2395  -6.5639  -5.9484  -5.6801  -5.3183  -5.0267
    -5.0000  -4.8462  -4.4942  -4.2695  -4.2308  -3.9440  -3.5374  -3.5112
    -2.7627  -2.3832  -2.3276  -2.3265  -2.2087  -2.1903  -2.0521  -1.8964
    -1.5064  -1.3140  -1.0995  -0.9256  -0.5471  -0.0144   0.0622   0.1171
     0.1790   0.4746   0.6896   1.1784   1.1928   1.2970   1.3712   1.4032
     1.4525   1.4583   1.9412   2.0659   2.1310   2.4058   2.7290   2.8271
     2.9629   3.5197   3.6534   3.7034   3.7823   3.8110   3.9709   4.0283
     4.1031   4.5527   4.6754   4.8269   5.0175   5.0547   5.1412   5.2995
     5.3585   5.5854   5.6473   5.6863   5.7474   5.9859   6.0260   6.0770
     6.1344   6.2253   6.2638   6.4962   6.5352   6.5974   6.6459   6.8559
     6.9034   6.9379   7.0298   7.0389   7.2327   7.2882   7.4989   7.7095
     7.9274   7.9448   8.0746   8.0888   8.1134   8.2143   8.2581   8.3191
     8.3371   8.3989   8.5374   8.6203   8.7023   8.7082   8.8404   8.8829
     9.0563   9.1904   9.2365   9.3079   9.4599   9.4798   9.5735   9.6263
     9.6959   9.7959   9.8995  10.0409  10.0443  10.1091  10.4429  10.7578
    11.0201  11.2013  11.5464  11.8690  12.2182  13.5813  14.9066  15.2066
    18.0670  18.1974  18.2372  18.3015  18.3511  18.8248  18.8548  18.9750
    19.1791  19.2307  19.4435  19.4706  19.6968  19.7997  19.9754  20.0171
    20.1969  20.4589  20.4794  20.5059  20.5655  20.5884  20.6118  20.6485

     occupation numbers 
     1.0000   1.0000   1.0000   1.0000   1.0000   1.0000   1.0000   1.0000
     1.0000   1.0000   1.0000   1.0000   1.0000   1.0000   1.0000   1.0000
     1.0000   1.0000   1.0000   1.0000   1.0000   1.0000   1.0000   1.0000
     1.0000   1.0000   1.0000   1.0000   1.0000   1.0000   1.0000   1.0000
     1.0000   1.0000   1.0000   1.0000   1.0000   1.0000   1.0000   1.0000
     1.0000   1.0000   1.0000   1.0000   1.0000   1.0000   1.0000   1.0000
     1.0000   1.0000   1.0000   1.0000   1.0000   1.0000   1.0000   1.0000
     1.0000   1.0000   1.0000   1.0000   1.0000   1.0000   1.0000   1.0000
     1.0000   1.0000   1.0000   1.0000   1.0000   1.0000   1.0000   1.0000
     1.0000   1.0000   1.0000   1.0000   1.0000   1.0000   1.0000   1.0000
     1.0000   1.0000   1.0000   1.0000   1.0000   1.0000   1.0000   1.0000
     1.0000   1.0000   1.0000   1.0000   1.0000   1.0000   1.0000   1.0000
     1.0000   1.0000   1.0000   1.0000   1.0000   1.0000   1.0000   1.0000
     1.0000   1.0000   1.0000   1.0000   1.0000   1.0000   1.0000   1.0000
     1.0000   1.0000   1.0000   1.0000   1.0000   1.0000   1.0000   1.0000
     1.0000   1.0000   1.0000   1.0000   1.0000   1.0000   1.0000   0.0000
     0.0000   0.0000   0.0000   0.0000   0.0000   0.0000   0.0000   0.0000
     0.0000   0.0000   0.0000   0.0000   0.0000   0.0000   0.0000   0.0000
     0.0000   0.0000   0.0000   0.0000   0.0000   0.0000   0.0000   0.0000

          k = 0.3333 0.3333 0.3333 ( 24303 PWs)   bands (ev):

    -7.8914  -7.1833  -6.9908  -6.9908  -6.2769  -6.2340  -6.2340  -5.4586
    -4.1886  -4.0428  -4.0428  -3.5186  -3.3936  -3.3936  -3.3323  -3.3091
    -3.3091  -2.9106  -2.6744  -2.6744  -1.9509  -1.9070  -1.9070  -1.5419
    -1.4564  -1.4564  -1.4086  -1.4086  -1.3692  -1.2292  -1.2292   0.0618
     0.8480   0.8480   0.9902   0.9902   0.9912   1.3056   1.8251   1.8251
     1.8578   1.9174   2.0095   2.0095   2.5928   2.5928   2.6002   2.6875
     2.7179   2.7179   3.1463   3.1463   3.5344   4.0674   4.2919   4.2919
     4.8169   4.9357   4.9366   4.9366   5.0834   5.0834   5.1470   5.3120
     5.3120   5.4072   5.4991   5.4991   5.5940   5.5940   5.6481   6.3839
     6.7305   6.7305   6.9325   6.9731   6.9731   7.0000   7.0717   7.0717
     7.1893   7.1893   7.2338   7.2583   7.2583   7.2645   7.3506   7.3549
     7.3549   7.4900   7.7329   7.7329   7.9228   7.9228   7.9549   7.9808
     8.1785   8.1785   8.2802   8.3032   8.3032   8.4172   8.4651   8.4651
     8.6761   8.6761   8.8679   9.0443   9.1079   9.5290   9.5290   9.7896
     9.7896  10.4845  10.4880  10.4880  10.5960  10.9388  10.9388  11.2625
    11.2625  11.2687  11.5197  11.6655  11.6655  13.4829  15.1998  15.1998
    18.1415  18.2451  18.2451  18.4573  18.6487  18.6487  19.2139  19.4001
    19.4001  19.5380  19.5380  19.5778  19.6144  19.6144  19.6513  19.7450
    19.7450  19.8671  19.9220  19.9220  20.0032  20.0032  20.0205  20.1435

     occupation numbers 
     1.0000   1.0000   1.0000   1.0000   1.0000   1.0000   1.0000   1.0000
     1.0000   1.0000   1.0000   1.0000   1.0000   1.0000   1.0000   1.0000
     1.0000   1.0000   1.0000   1.0000   1.0000   1.0000   1.0000   1.0000
     1.0000   1.0000   1.0000   1.0000   1.0000   1.0000   1.0000   1.0000
     1.0000   1.0000   1.0000   1.0000   1.0000   1.0000   1.0000   1.0000
     1.0000   1.0000   1.0000   1.0000   1.0000   1.0000   1.0000   1.0000
     1.0000   1.0000   1.0000   1.0000   1.0000   1.0000   1.0000   1.0000
     1.0000   1.0000   1.0000   1.0000   1.0000   1.0000   1.0000   1.0000
     1.0000   1.0000   1.0000   1.0000   1.0000   1.0000   1.0000   1.0000
     1.0000   1.0000   1.0000   1.0000   1.0000   1.0000   1.0000   1.0000
     1.0000   1.0000   1.0000   1.0000   1.0000   1.0000   1.0000   1.0000
     1.0000   1.0000   1.0000   1.0000   1.0000   1.0000   1.0000   1.0000
     1.0000   1.0000   1.0000   1.0000   1.0000   1.0000   1.0000   1.0000
     1.0000   1.0000   1.0000   1.0000   1.0000   1.0000   1.0000   1.0000
     1.0000   1.0000   1.0000   1.0000   1.0000   1.0000   1.0000   1.0000
     1.0000   1.0000   1.0000   1.0000   1.0000   1.0000   0.0000   0.0000
     0.0000   0.0000   0.0000   0.0000   0.0000   0.0000   0.0000   0.0000
     0.0000   0.0000   0.0000   0.0000   0.0000   0.0000   0.0000   0.0000
     0.0000   0.0000   0.0000   0.0000   0.0000   0.0000   0.0000   0.0000

          k =-0.3333 0.0000 0.3333 ( 24236 PWs)   bands (ev):

    -8.0830  -7.4845  -7.1098  -6.5530  -5.9786  -5.6845  -5.3699  -5.0323
    -4.9384  -4.7818  -4.5198  -4.2896  -4.2292  -4.0550  -3.5981  -3.3353
    -2.7714  -2.4049  -2.3650  -2.3049  -2.1960  -2.1637  -2.1121  -1.6583
    -1.6476  -1.3179  -1.1239  -0.9792  -0.6110   0.0092   0.0782   0.1204
     0.2532   0.4777   0.8704   1.0604   1.2142   1.2321   1.2434   1.3989
     1.4720   1.5770   1.8500   1.9109   2.1315   2.5765   2.6816   2.8578
     2.9436   3.5142   3.6575   3.7054   3.7835   3.8835   4.0247   4.1092
     4.1778   4.3905   4.6320   4.8126   4.9660   5.0251   5.1859   5.2434
     5.4059   5.5608   5.6473   5.6738   5.7884   6.0374   6.0788   6.1253
     6.1678   6.2143   6.2595   6.4411   6.4775   6.6086   6.6393   6.8243
     6.8906   6.9551   7.0030   7.0906   7.2187   7.3954   7.5035   7.6786
     7.8495   7.9048   7.9646   8.0683   8.1729   8.2131   8.2443   8.2790
     8.3674   8.4305   8.5272   8.5896   8.7147   8.7463   8.8835   8.9642
     9.0710   9.1376   9.2277   9.3147   9.4515   9.4897   9.5045   9.6495
     9.7266   9.7381   9.9243  10.0244  10.0672  10.1017  10.4878  10.8755
    10.9777  11.1637  11.4955  11.7586  12.2564  13.8310  14.8134  15.1099
    18.0374  18.2084  18.2520  18.3050  18.3747  18.7859  18.9254  19.1037
    19.1499  19.2771  19.3627  19.4789  19.7034  19.8487  19.8801  20.0271
    20.2343  20.3573  20.4203  20.5070  20.5636  20.5803  20.6342  20.6759

     occupation numbers 
     1.0000   1.0000   1.0000   1.0000   1.0000   1.0000   1.0000   1.0000
     1.0000   1.0000   1.0000   1.0000   1.0000   1.0000   1.0000   1.0000
     1.0000   1.0000   1.0000   1.0000   1.0000   1.0000   1.0000   1.0000
     1.0000   1.0000   1.0000   1.0000   1.0000   1.0000   1.0000   1.0000
     1.0000   1.0000   1.0000   1.0000   1.0000   1.0000   1.0000   1.0000
     1.0000   1.0000   1.0000   1.0000   1.0000   1.0000   1.0000   1.0000
     1.0000   1.0000   1.0000   1.0000   1.0000   1.0000   1.0000   1.0000
     1.0000   1.0000   1.0000   1.0000   1.0000   1.0000   1.0000   1.0000
     1.0000   1.0000   1.0000   1.0000   1.0000   1.0000   1.0000   1.0000
     1.0000   1.0000   1.0000   1.0000   1.0000   1.0000   1.0000   1.0000
     1.0000   1.0000   1.0000   1.0000   1.0000   1.0000   1.0000   1.0000
     1.0000   1.0000   1.0000   1.0000   1.0000   1.0000   1.0000   1.0000
     1.0000   1.0000   1.0000   1.0000   1.0000   1.0000   1.0000   1.0000
     1.0000   1.0000   1.0000   1.0000   1.0000   1.0000   1.0000   1.0000
     1.0000   1.0000   1.0000   1.0000   1.0000   1.0000   1.0000   1.0000
     1.0000   1.0000   1.0000   1.0000   1.0000   1.0000   1.0000   0.5000
     0.0000   0.0000   0.0000   0.0000   0.0000   0.0000   0.0000   0.0000
     0.0000   0.0000   0.0000   0.0000   0.0000   0.0000   0.0000   0.0000
     0.0000   0.0000   0.0000   0.0000   0.0000   0.0000   0.0000   0.0000

          k = 0.3333-0.3333 0.3333 ( 24303 PWs)   bands (ev):

    -7.8650  -7.3320  -6.9911  -6.8293  -6.4652  -6.2334  -5.9901  -5.4901
    -4.4637  -4.0427  -3.9367  -3.7193  -3.4261  -3.3582  -3.3173  -3.2395
    -3.0816  -2.8886  -2.6919  -2.4314  -2.0683  -1.8919  -1.8552  -1.7192
    -1.4857  -1.4676  -1.4441  -1.3654  -1.3621  -1.2576  -1.1940  -0.0547
     0.7587   0.8551   0.9524   0.9977   1.0651   1.4228   1.7515   1.7762
     1.8525   1.9471   2.0330   2.2317   2.5839   2.6124   2.6816   2.7004
     2.7109   2.7760   2.9191   3.1724   3.5081   4.0032   4.2396   4.2961
     4.8324   4.8336   4.8557   5.0067   5.0309   5.0566   5.1875   5.2454
     5.2705   5.4284   5.4345   5.5029   5.6848   5.7756   5.8156   6.4744
     6.7243   6.7702   6.9219   6.9224   6.9675   7.0472   7.0652   7.0867
     7.1577   7.1620   7.2172   7.2560   7.2577   7.3210   7.3372   7.3519
     7.3648   7.4667   7.7246   7.7382   7.8321   7.9166   7.9438   7.9537
     8.1319   8.1504   8.2549   8.2828   8.3430   8.3982   8.4068   8.4718
     8.6981   8.7166   8.9539   8.9948   9.1140   9.5351   9.5742   9.7041
     9.8598  10.4054  10.5062  10.5089  10.5566  10.9271  10.9423  11.2039
    11.2265  11.2753  11.4699  11.7177  11.7402  13.8536  14.8848  15.1966
    18.0982  18.2635  18.3399  18.5343  18.6515  18.7249  19.1998  19.3860
    19.4430  19.5067  19.5321  19.5504  19.6044  19.6286  19.6605  19.7146
    19.7457  19.7932  19.9081  19.9250  19.9774  19.9886  20.0441  20.1504

     occupation numbers 
     1.0000   1.0000   1.0000   1.0000   1.0000   1.0000   1.0000   1.0000
     1.0000   1.0000   1.0000   1.0000   1.0000   1.0000   1.0000   1.0000
     1.0000   1.0000   1.0000   1.0000   1.0000   1.0000   1.0000   1.0000
     1.0000   1.0000   1.0000   1.0000   1.0000   1.0000   1.0000   1.0000
     1.0000   1.0000   1.0000   1.0000   1.0000   1.0000   1.0000   1.0000
     1.0000   1.0000   1.0000   1.0000   1.0000   1.0000   1.0000   1.0000
     1.0000   1.0000   1.0000   1.0000   1.0000   1.0000   1.0000   1.0000
     1.0000   1.0000   1.0000   1.0000   1.0000   1.0000   1.0000   1.0000
     1.0000   1.0000   1.0000   1.0000   1.0000   1.0000   1.0000   1.0000
     1.0000   1.0000   1.0000   1.0000   1.0000   1.0000   1.0000   1.0000
     1.0000   1.0000   1.0000   1.0000   1.0000   1.0000   1.0000   1.0000
     1.0000   1.0000   1.0000   1.0000   1.0000   1.0000   1.0000   1.0000
     1.0000   1.0000   1.0000   1.0000   1.0000   1.0000   1.0000   1.0000
     1.0000   1.0000   1.0000   1.0000   1.0000   1.0000   1.0000   1.0000
     1.0000   1.0000   1.0000   1.0000   1.0000   1.0000   1.0000   1.0000
     1.0000   1.0000   1.0000   1.0000   1.0000   1.0000   1.0000   0.0000
     0.0000   0.0000   0.0000   0.0000   0.0000   0.0000   0.0000   0.0000
     0.0000   0.0000   0.0000   0.0000   0.0000   0.0000   0.0000   0.0000
     0.0000   0.0000   0.0000   0.0000   0.0000   0.0000   0.0000   0.0000

 ------ SPIN DOWN ----------


          k = 0.0000 0.0000 0.0000 ( 24207 PWs)   bands (ev):

    -8.5522  -6.8996  -6.2894  -6.2894  -6.1794  -6.1794  -5.8848  -4.9129
    -4.1465  -4.1465  -4.1145  -4.1145  -4.0358  -4.0313  -4.0313  -3.9484
    -3.8817  -3.8817  -3.3674  -2.9647  -2.6837  -2.6837  -2.1060  -0.3770
    -0.3770  -0.3573  -0.3269  -0.1095   0.1614   0.1614   0.2697   0.2697
     0.3449   0.5871   0.8119   0.8119   0.9530   0.9542   0.9542   1.0129
     1.0148   1.0148   1.3225   1.3225   3.0634   3.9279   3.9279   4.0360
     4.1801   4.1801   4.1805   4.2287   4.2328   4.2328   4.3943   4.3943
     4.4555   4.4555   4.5404   4.6301   4.6301   4.6303   4.6327   4.7384
     4.7384   4.8659   4.9261   4.9261   5.0309   5.1827   5.1827   5.2629
     5.3152   5.3152   5.3491   5.3783   5.3783   6.0032   6.0032   6.0402
     6.6037   6.6037   6.6832   6.9773   6.9918   6.9918   7.5246   8.3096
     8.3096   8.3672   8.4244   8.4244   8.6167   8.6167   8.7447   8.7717
     8.7717   8.7855   8.8351   8.8351   8.8449   9.2255   9.2332   9.2332
     9.6509   9.6509   9.8391   9.8538   9.8750   9.8750   9.8773   9.9234
     9.9234   9.9435   9.9582   9.9582  10.0449  10.0449  10.2475  10.2486
    10.2486  11.0789  12.3033  12.4239  12.4239  14.0022  15.2738  15.2738
    17.2884  17.3269  17.3269  17.4694  17.5283  17.5283  17.7959  17.8837
    17.8837  17.9854  17.9854  18.3448  18.8998  18.8998  18.9352  20.6075
    20.7536  20.7537  20.8011  20.8791  20.8792  20.9669  20.9669  20.9708

     occupation numbers 
     1.0000   1.0000   1.0000   1.0000   1.0000   1.0000   1.0000   1.0000
     1.0000   1.0000   1.0000   1.0000   1.0000   1.0000   1.0000   1.0000
     1.0000   1.0000   1.0000   1.0000   1.0000   1.0000   1.0000   1.0000
     1.0000   1.0000   1.0000   1.0000   1.0000   1.0000   1.0000   1.0000
     1.0000   1.0000   1.0000   1.0000   1.0000   1.0000   1.0000   1.0000
     1.0000   1.0000   1.0000   1.0000   1.0000   1.0000   1.0000   1.0000
     1.0000   1.0000   1.0000   1.0000   1.0000   1.0000   1.0000   1.0000
     1.0000   1.0000   1.0000   1.0000   1.0000   1.0000   1.0000   1.0000
     1.0000   1.0000   1.0000   1.0000   1.0000   1.0000   1.0000   1.0000
     1.0000   1.0000   1.0000   1.0000   1.0000   1.0000   1.0000   1.0000
     1.0000   1.0000   1.0000   1.0000   1.0000   1.0000   1.0000   1.0000
     1.0000   1.0000   1.0000   1.0000   1.0000   1.0000   1.0000   1.0000
     1.0000   1.0000   1.0000   1.0000   1.0000   1.0000   1.0000   1.0000
     1.0000   1.0000   1.0000   1.0000   1.0000   1.0000   1.0000   1.0000
     1.0000   1.0000   1.0000   1.0000   1.0000   1.0000   1.0000   1.0000
     1.0000   1.0000   1.0000   1.0000   1.0000   1.0000   0.0000   0.0000
     0.0000   0.0000   0.0000   0.0000   0.0000   0.0000   0.0000   0.0000
     0.0000   0.0000   0.0000   0.0000   0.0000   0.0000   0.0000   0.0000
     0.0000   0.0000   0.0000   0.0000   0.0000   0.0000   0.0000   0.0000

          k = 0.0000 0.0000 0.3333 ( 24280 PWs)   bands (ev):

    -8.3181  -7.5524  -6.5229  -6.0438  -5.9380  -5.8247  -5.4891  -5.3038
    -5.1875  -4.9846  -4.5118  -4.1175  -3.8269  -3.7950  -3.6934  -3.4354
    -3.2215  -3.1549  -2.9352  -2.5994  -2.5155  -2.3983  -2.3230  -1.7726
    -0.8301  -0.7022  -0.5946  -0.3476   0.1824   0.2782   0.3451   0.3887
     0.4690   0.5502   0.5681   0.6562   0.7237   0.7474   0.9705   1.4743
     1.9922   2.0085   2.1415   2.2330   2.4069   2.4785   2.4791   2.7396
     2.9516   2.9971   3.1587   3.1669   3.8944   3.9768   4.0465   4.0589
     4.2840   4.3702   4.5124   4.5505   5.0891   5.1107   5.1423   5.1967
     5.1985   5.5998   5.6136   5.7133   5.7303   6.0669   6.1086   6.1733
     6.1866   6.3210   6.4007   6.4503   6.4927   6.6100   6.6232   6.7464
     6.7504   6.8807   6.8968   6.9287   7.1351   7.1578   7.1804   7.2517
     7.4189   7.4671   7.6706   7.7717   7.8287   8.0436   8.1485   8.2692
     8.2924   8.4340   8.6785   8.7022   8.7625   9.0996   9.1824   9.3531
     9.3736   9.6304   9.6509   9.7104   9.7640   9.9110   9.9315   9.9404
     9.9637  10.0011  10.1013  10.1186  10.1563  10.2649  10.2709  10.3588
    10.3675  11.3736  11.6993  11.7230  12.0435  13.7649  14.9681  15.1449
    17.1924  17.2921  17.9454  18.3088  18.3501  18.4820  18.5086  18.6120
    18.8220  18.8337  18.9871  19.0801  19.2063  19.8270  19.8604  20.4776
    20.6623  20.6852  20.7845  20.7854  20.8257  20.8556  20.9059  20.9445

     occupation numbers 
     1.0000   1.0000   1.0000   1.0000   1.0000   1.0000   1.0000   1.0000
     1.0000   1.0000   1.0000   1.0000   1.0000   1.0000   1.0000   1.0000
     1.0000   1.0000   1.0000   1.0000   1.0000   1.0000   1.0000   1.0000
     1.0000   1.0000   1.0000   1.0000   1.0000   1.0000   1.0000   1.0000
     1.0000   1.0000   1.0000   1.0000   1.0000   1.0000   1.0000   1.0000
     1.0000   1.0000   1.0000   1.0000   1.0000   1.0000   1.0000   1.0000
     1.0000   1.0000   1.0000   1.0000   1.0000   1.0000   1.0000   1.0000
     1.0000   1.0000   1.0000   1.0000   1.0000   1.0000   1.0000   1.0000
     1.0000   1.0000   1.0000   1.0000   1.0000   1.0000   1.0000   1.0000
     1.0000   1.0000   1.0000   1.0000   1.0000   1.0000   1.0000   1.0000
     1.0000   1.0000   1.0000   1.0000   1.0000   1.0000   1.0000   1.0000
     1.0000   1.0000   1.0000   1.0000   1.0000   1.0000   1.0000   1.0000
     1.0000   1.0000   1.0000   1.0000   1.0000   1.0000   1.0000   1.0000
     1.0000   1.0000   1.0000   1.0000   1.0000   1.0000   1.0000   1.0000
     1.0000   1.0000   1.0000   1.0000   1.0000   1.0000   1.0000   1.0000
     1.0000   1.0000   1.0000   1.0000   1.0000   1.0000   1.0000   0.0000
     0.0000   0.0000   0.0000   0.0000   0.0000   0.0000   0.0000   0.0000
     0.0000   0.0000   0.0000   0.0000   0.0000   0.0000   0.0000   0.0000
     0.0000   0.0000   0.0000   0.0000   0.0000   0.0000   0.0000   0.0000

          k = 0.0000 0.3333 0.3333 ( 24236 PWs)   bands (ev):

    -8.0965  -7.3612  -7.2397  -6.5638  -5.9483  -5.6803  -5.3182  -5.0268
    -5.0002  -4.8464  -4.4942  -4.2696  -4.2309  -3.9441  -3.5374  -3.5114
    -2.7626  -2.3834  -2.3278  -2.3266  -2.2088  -2.1904  -2.0522  -1.8964
    -1.5065  -1.3142  -1.0995  -0.9257  -0.5471  -0.0144   0.0621   0.1171
     0.1789   0.4745   0.6895   1.1783   1.1927   1.2969   1.3711   1.4031
     1.4524   1.4583   1.9411   2.0658   2.1309   2.4057   2.7289   2.8270
     2.9629   3.5197   3.6533   3.7033   3.7822   3.8109   3.9708   4.0283
     4.1031   4.5527   4.6753   4.8268   5.0174   5.0547   5.1411   5.2995
     5.3585   5.5853   5.6473   5.6863   5.7474   5.9859   6.0260   6.0769
     6.1343   6.2252   6.2637   6.4962   6.5351   6.5973   6.6459   6.8559
     6.9034   6.9379   7.0297   7.0388   7.2326   7.2882   7.4989   7.7095
     7.9274   7.9447   8.0746   8.0887   8.1134   8.2143   8.2581   8.3191
     8.3372   8.3989   8.5374   8.6203   8.7023   8.7082   8.8404   8.8829
     9.0563   9.1904   9.2365   9.3079   9.4599   9.4798   9.5735   9.6263
     9.6960   9.7959   9.8996  10.0409  10.0443  10.1092  10.4430  10.7579
    11.0202  11.2014  11.5464  11.8694  12.2183  13.5820  14.9065  15.2065
    18.0670  18.1974  18.2372  18.3014  18.3511  18.8248  18.8548  18.9751
    19.1792  19.2309  19.4435  19.4706  19.6967  19.7996  19.9754  20.0173
    20.1970  20.4591  20.4795  20.5060  20.5655  20.5885  20.6118  20.6485

     occupation numbers 
     1.0000   1.0000   1.0000   1.0000   1.0000   1.0000   1.0000   1.0000
     1.0000   1.0000   1.0000   1.0000   1.0000   1.0000   1.0000   1.0000
     1.0000   1.0000   1.0000   1.0000   1.0000   1.0000   1.0000   1.0000
     1.0000   1.0000   1.0000   1.0000   1.0000   1.0000   1.0000   1.0000
     1.0000   1.0000   1.0000   1.0000   1.0000   1.0000   1.0000   1.0000
     1.0000   1.0000   1.0000   1.0000   1.0000   1.0000   1.0000   1.0000
     1.0000   1.0000   1.0000   1.0000   1.0000   1.0000   1.0000   1.0000
     1.0000   1.0000   1.0000   1.0000   1.0000   1.0000   1.0000   1.0000
     1.0000   1.0000   1.0000   1.0000   1.0000   1.0000   1.0000   1.0000
     1.0000   1.0000   1.0000   1.0000   1.0000   1.0000   1.0000   1.0000
     1.0000   1.0000   1.0000   1.0000   1.0000   1.0000   1.0000   1.0000
     1.0000   1.0000   1.0000   1.0000   1.0000   1.0000   1.0000   1.0000
     1.0000   1.0000   1.0000   1.0000   1.0000   1.0000   1.0000   1.0000
     1.0000   1.0000   1.0000   1.0000   1.0000   1.0000   1.0000   1.0000
     1.0000   1.0000   1.0000   1.0000   1.0000   1.0000   1.0000   1.0000
     1.0000   1.0000   1.0000   1.0000   1.0000   1.0000   1.0000   0.0000
     0.0000   0.0000   0.0000   0.0000   0.0000   0.0000   0.0000   0.0000
     0.0000   0.0000   0.0000   0.0000   0.0000   0.0000   0.0000   0.0000
     0.0000   0.0000   0.0000   0.0000   0.0000   0.0000   0.0000   0.0000

          k = 0.3333 0.3333 0.3333 ( 24303 PWs)   bands (ev):

    -7.8914  -7.1832  -6.9910  -6.9910  -6.2769  -6.2342  -6.2342  -5.4586
    -4.1883  -4.0429  -4.0429  -3.5184  -3.3938  -3.3938  -3.3324  -3.3093
    -3.3093  -2.9106  -2.6746  -2.6746  -1.9510  -1.9071  -1.9071  -1.5420
    -1.4565  -1.4565  -1.4087  -1.4087  -1.3693  -1.2292  -1.2292   0.0618
     0.8479   0.8479   0.9901   0.9901   0.9911   1.3056   1.8250   1.8250
     1.8577   1.9174   2.0094   2.0094   2.5927   2.5927   2.6002   2.6875
     2.7178   2.7178   3.1462   3.1462   3.5343   4.0674   4.2918   4.2918
     4.8168   4.9356   4.9365   4.9365   5.0833   5.0833   5.1470   5.3119
     5.3119   5.4071   5.4991   5.4991   5.5941   5.5941   5.6481   6.3839
     6.7306   6.7306   6.9325   6.9731   6.9731   7.0000   7.0717   7.0717
     7.1893   7.1893   7.2338   7.2583   7.2583   7.2644   7.3506   7.3548
     7.3548   7.4900   7.7329   7.7329   7.9227   7.9227   7.9549   7.9808
     8.1785   8.1785   8.2801   8.3031   8.3031   8.4172   8.4651   8.4651
     8.6761   8.6761   8.8680   9.0443   9.1079   9.5291   9.5291   9.7897
     9.7897  10.4845  10.4880  10.4880  10.5961  10.9389  10.9389  11.2625
    11.2625  11.2687  11.5199  11.6655  11.6655  13.4837  15.1997  15.1997
    18.1417  18.2450  18.2450  18.4573  18.6487  18.6487  19.2141  19.4001
    19.4001  19.5380  19.5380  19.5777  19.6144  19.6144  19.6513  19.7450
    19.7450  19.8671  19.9220  19.9221  20.0031  20.0032  20.0205  20.1436

     occupation numbers 
     1.0000   1.0000   1.0000   1.0000   1.0000   1.0000   1.0000   1.0000
     1.0000   1.0000   1.0000   1.0000   1.0000   1.0000   1.0000   1.0000
     1.0000   1.0000   1.0000   1.0000   1.0000   1.0000   1.0000   1.0000
     1.0000   1.0000   1.0000   1.0000   1.0000   1.0000   1.0000   1.0000
     1.0000   1.0000   1.0000   1.0000   1.0000   1.0000   1.0000   1.0000
     1.0000   1.0000   1.0000   1.0000   1.0000   1.0000   1.0000   1.0000
     1.0000   1.0000   1.0000   1.0000   1.0000   1.0000   1.0000   1.0000
     1.0000   1.0000   1.0000   1.0000   1.0000   1.0000   1.0000   1.0000
     1.0000   1.0000   1.0000   1.0000   1.0000   1.0000   1.0000   1.0000
     1.0000   1.0000   1.0000   1.0000   1.0000   1.0000   1.0000   1.0000
     1.0000   1.0000   1.0000   1.0000   1.0000   1.0000   1.0000   1.0000
     1.0000   1.0000   1.0000   1.0000   1.0000   1.0000   1.0000   1.0000
     1.0000   1.0000   1.0000   1.0000   1.0000   1.0000   1.0000   1.0000
     1.0000   1.0000   1.0000   1.0000   1.0000   1.0000   1.0000   1.0000
     1.0000   1.0000   1.0000   1.0000   1.0000   1.0000   1.0000   1.0000
     1.0000   1.0000   1.0000   1.0000   1.0000   1.0000   0.0000   0.0000
     0.0000   0.0000   0.0000   0.0000   0.0000   0.0000   0.0000   0.0000
     0.0000   0.0000   0.0000   0.0000   0.0000   0.0000   0.0000   0.0000
     0.0000   0.0000   0.0000   0.0000   0.0000   0.0000   0.0000   0.0000

          k =-0.3333 0.0000 0.3333 ( 24236 PWs)   bands (ev):

    -8.0830  -7.4844  -7.1100  -6.5529  -5.9785  -5.6846  -5.3699  -5.0325
    -4.9386  -4.7819  -4.5198  -4.2898  -4.2293  -4.0551  -3.5982  -3.3354
    -2.7712  -2.4051  -2.3651  -2.3050  -2.1961  -2.1638  -2.1122  -1.6584
    -1.6477  -1.3180  -1.1239  -0.9794  -0.6110   0.0091   0.0781   0.1203
     0.2531   0.4777   0.8703   1.0603   1.2141   1.2320   1.2433   1.3988
     1.4719   1.5769   1.8500   1.9108   2.1314   2.5764   2.6815   2.8577
     2.9436   3.5142   3.6574   3.7053   3.7834   3.8834   4.0246   4.1091
     4.1778   4.3905   4.6320   4.8125   4.9659   5.0251   5.1859   5.2433
     5.4059   5.5607   5.6472   5.6738   5.7883   6.0374   6.0787   6.1253
     6.1677   6.2142   6.2595   6.4411   6.4775   6.6086   6.6393   6.8243
     6.8905   6.9551   7.0030   7.0906   7.2186   7.3954   7.5035   7.6787
     7.8495   7.9048   7.9646   8.0682   8.1729   8.2131   8.2443   8.2790
     8.3674   8.4305   8.5272   8.5895   8.7147   8.7463   8.8836   8.9642
     9.0710   9.1377   9.2276   9.3147   9.4515   9.4897   9.5045   9.6495
     9.7267   9.7381   9.9244  10.0244  10.0672  10.1017  10.4878  10.8754
    10.9779  11.1638  11.4956  11.7591  12.2564  13.8316  14.8133  15.1098
    18.0374  18.2084  18.2520  18.3050  18.3746  18.7860  18.9255  19.1038
    19.1499  19.2772  19.3628  19.4789  19.7034  19.8487  19.8801  20.0272
    20.2345  20.3573  20.4204  20.5071  20.5637  20.5803  20.6343  20.6758

     occupation numbers 
     1.0000   1.0000   1.0000   1.0000   1.0000   1.0000   1.0000   1.0000
     1.0000   1.0000   1.0000   1.0000   1.0000   1.0000   1.0000   1.0000
     1.0000   1.0000   1.0000   1.0000   1.0000   1.0000   1.0000   1.0000
     1.0000   1.0000   1.0000   1.0000   1.0000   1.0000   1.0000   1.0000
     1.0000   1.0000   1.0000   1.0000   1.0000   1.0000   1.0000   1.0000
     1.0000   1.0000   1.0000   1.0000   1.0000   1.0000   1.0000   1.0000
     1.0000   1.0000   1.0000   1.0000   1.0000   1.0000   1.0000   1.0000
     1.0000   1.0000   1.0000   1.0000   1.0000   1.0000   1.0000   1.0000
     1.0000   1.0000   1.0000   1.0000   1.0000   1.0000   1.0000   1.0000
     1.0000   1.0000   1.0000   1.0000   1.0000   1.0000   1.0000   1.0000
     1.0000   1.0000   1.0000   1.0000   1.0000   1.0000   1.0000   1.0000
     1.0000   1.0000   1.0000   1.0000   1.0000   1.0000   1.0000   1.0000
     1.0000   1.0000   1.0000   1.0000   1.0000   1.0000   1.0000   1.0000
     1.0000   1.0000   1.0000   1.0000   1.0000   1.0000   1.0000   1.0000
     1.0000   1.0000   1.0000   1.0000   1.0000   1.0000   1.0000   1.0000
     1.0000   1.0000   1.0000   1.0000   1.0000   1.0000   1.0000   0.5000
     0.0000   0.0000   0.0000   0.0000   0.0000   0.0000   0.0000   0.0000
     0.0000   0.0000   0.0000   0.0000   0.0000   0.0000   0.0000   0.0000
     0.0000   0.0000   0.0000   0.0000   0.0000   0.0000   0.0000   0.0000

          k = 0.3333-0.3333 0.3333 ( 24303 PWs)   bands (ev):

    -7.8650  -7.3319  -6.9913  -6.8294  -6.4652  -6.2335  -5.9902  -5.4900
    -4.4634  -4.0428  -3.9368  -3.7193  -3.4263  -3.3584  -3.3174  -3.2396
    -3.0818  -2.8886  -2.6920  -2.4314  -2.0684  -1.8921  -1.8553  -1.7193
    -1.4859  -1.4678  -1.4441  -1.3654  -1.3621  -1.2577  -1.1941  -0.0547
     0.7585   0.8550   0.9523   0.9976   1.0650   1.4227   1.7514   1.7761
     1.8524   1.9471   2.0329   2.2316   2.5838   2.6124   2.6816   2.7003
     2.7108   2.7759   2.9191   3.1723   3.5080   4.0031   4.2396   4.2961
     4.8324   4.8336   4.8557   5.0066   5.0308   5.0565   5.1875   5.2453
     5.2704   5.4284   5.4344   5.5029   5.6848   5.7756   5.8155   6.4744
     6.7244   6.7703   6.9219   6.9224   6.9675   7.0472   7.0652   7.0866
     7.1577   7.1620   7.2171   7.2559   7.2576   7.3210   7.3372   7.3518
     7.3648   7.4667   7.7246   7.7382   7.8321   7.9166   7.9438   7.9536
     8.1319   8.1504   8.2549   8.2828   8.3430   8.3982   8.4068   8.4718
     8.6981   8.7166   8.9539   8.9948   9.1140   9.5351   9.5742   9.7043
     9.8598  10.4055  10.5062  10.5089  10.5567  10.9271  10.9425  11.2040
    11.2265  11.2753  11.4701  11.7177  11.7402  13.8544  14.8847  15.1965
    18.0982  18.2634  18.3399  18.5343  18.6515  18.7248  19.2000  19.3861
    19.4430  19.5067  19.5320  19.5503  19.6043  19.6285  19.6605  19.7146
    19.7457  19.7933  19.9082  19.9251  19.9774  19.9886  20.0440  20.1504

     occupation numbers 
     1.0000   1.0000   1.0000   1.0000   1.0000   1.0000   1.0000   1.0000
     1.0000   1.0000   1.0000   1.0000   1.0000   1.0000   1.0000   1.0000
     1.0000   1.0000   1.0000   1.0000   1.0000   1.0000   1.0000   1.0000
     1.0000   1.0000   1.0000   1.0000   1.0000   1.0000   1.0000   1.0000
     1.0000   1.0000   1.0000   1.0000   1.0000   1.0000   1.0000   1.0000
     1.0000   1.0000   1.0000   1.0000   1.0000   1.0000   1.0000   1.0000
     1.0000   1.0000   1.0000   1.0000   1.0000   1.0000   1.0000   1.0000
     1.0000   1.0000   1.0000   1.0000   1.0000   1.0000   1.0000   1.0000
     1.0000   1.0000   1.0000   1.0000   1.0000   1.0000   1.0000   1.0000
     1.0000   1.0000   1.0000   1.0000   1.0000   1.0000   1.0000   1.0000
     1.0000   1.0000   1.0000   1.0000   1.0000   1.0000   1.0000   1.0000
     1.0000   1.0000   1.0000   1.0000   1.0000   1.0000   1.0000   1.0000
     1.0000   1.0000   1.0000   1.0000   1.0000   1.0000   1.0000   1.0000
     1.0000   1.0000   1.0000   1.0000   1.0000   1.0000   1.0000   1.0000
     1.0000   1.0000   1.0000   1.0000   1.0000   1.0000   1.0000   1.0000
     1.0000   1.0000   1.0000   1.0000   1.0000   1.0000   1.0000   0.0000
     0.0000   0.0000   0.0000   0.0000   0.0000   0.0000   0.0000   0.0000
     0.0000   0.0000   0.0000   0.0000   0.0000   0.0000   0.0000   0.0000
     0.0000   0.0000   0.0000   0.0000   0.0000   0.0000   0.0000   0.0000

     the spin up/dw Fermi energies are    15.1117   15.1117 ev

!    total energy              =    -724.77362995 Ry
     Harris-Foulkes estimate   =    -724.77362955 Ry
     estimated scf accuracy    <       0.00000048 Ry

     The total energy is the sum of the following terms:

     one-electron contribution =     232.30024120 Ry
     hartree contribution      =      69.39833443 Ry
     xc contribution           =    -226.36553798 Ry
     ewald contribution        =    -800.10659464 Ry
     smearing contrib. (-TS)   =      -0.00007296 Ry

     total magnetization       =    -0.00 Bohr mag/cell
     absolute magnetization    =     0.00 Bohr mag/cell

     convergence has been achieved in   9 iterations

     Writing output data file di.save
 
     init_run     :      1.33s CPU      1.71s WALL (       1 calls)
     electrons    :     24.86s CPU     25.25s WALL (       1 calls)

     Called by init_run:
     wfcinit      :      0.75s CPU      0.83s WALL (       1 calls)
     wfcinit:atom :      0.01s CPU      0.01s WALL (       2 calls)
     wfcinit:wfcr :      0.71s CPU      0.77s WALL (       2 calls)
     potinit      :      0.08s CPU      0.09s WALL (       1 calls)

     Called by electrons:
     c_bands      :     23.26s CPU     23.62s WALL (       9 calls)
     sum_band     :      1.08s CPU      1.10s WALL (       9 calls)
     v_of_rho     :      0.37s CPU      0.38s WALL (      10 calls)
     v_h          :      0.01s CPU      0.01s WALL (      10 calls)
     v_xc         :      0.36s CPU      0.36s WALL (      10 calls)
     mix_rho      :      0.06s CPU      0.06s WALL (       9 calls)

     Called by c_bands:
     init_us_2    :      0.17s CPU      0.18s WALL (      38 calls)
     cegterg      :     20.66s CPU     20.99s WALL (      18 calls)

     Called by sum_band:

     Called by *egterg:
     h_psi        :      8.36s CPU      8.47s WALL (     124 calls)
     g_psi        :      0.05s CPU      0.05s WALL (     104 calls)
     cdiaghg      :      8.73s CPU      8.76s WALL (     122 calls)
     cegterg:over :      1.60s CPU      1.61s WALL (     104 calls)
     cegterg:upda :      1.23s CPU      1.24s WALL (     104 calls)
     cegterg:last :      0.46s CPU      0.46s WALL (      18 calls)

     Called by h_psi:
     h_psi:pot    :      8.26s CPU      8.36s WALL (     124 calls)
     h_psi:calbec :      1.79s CPU      1.81s WALL (     124 calls)
     vloc_psi     :      4.60s CPU      4.67s WALL (     124 calls)
     add_vuspsi   :      1.87s CPU      1.89s WALL (     124 calls)

     General routines
     calbec       :      1.79s CPU      1.81s WALL (     124 calls)
     fft          :      0.11s CPU      0.32s WALL (     207 calls)
     fftw         :      4.89s CPU      4.90s WALL (   18360 calls)
 
     Parallel routines
     fft_scatter  :      1.47s CPU      1.44s WALL (   18567 calls)
 
     PWSCF        :    29.06s CPU        32.33s WALL

 
   This run was terminated on:  10:27: 6  12May2020            

=------------------------------------------------------------------------------=
   JOB DONE.
=------------------------------------------------------------------------------=
