
     Program PWSCF v.6.1 (svn rev. 13369) starts on 12May2020 at 10:25:16 

     This program is part of the open-source Quantum ESPRESSO suite
     for quantum simulation of materials; please cite
         "P. Giannozzi et al., J. Phys.:Condens. Matter 21 395502 (2009);
          URL http://www.quantum-espresso.org", 
     in publications or presentations arising from this work. More details at
     http://www.quantum-espresso.org/quote

     Parallel version (MPI), running on    96 processors
     K-points division:     npool     =       6
     R & G space division:  proc/nbgrp/npool/nimage =      16
     Reading input from scf.in
Warning: card &IONS ignored
Warning: card / ignored

     Current dimensions of program PWSCF are:
     Max number of different atomic species (ntypx) = 10
     Max number of k-points (npk) =  40000
     Max angular momentum in pseudopotentials (lmaxx) =  3

     Subspace diagonalization in iterative solution of the eigenvalue problem:
     a serial algorithm will be used

 
     Parallelization info
     --------------------
     sticks:   dense  smooth     PW     G-vecs:    dense   smooth      PW
     Min         252     252     67                12125    12125    1669
     Max         254     254     68                12129    12129    1672
     Sum        4049    4049   1085               194039   194039   26745
 


     bravais-lattice index     =            1
     lattice parameter (alat)  =      13.4862  a.u.
     unit-cell volume          =    2452.8358 (a.u.)^3
     number of atoms/cell      =           63
     number of atomic types    =            2
     number of electrons       =       254.00 (up: 127.00, down: 127.00)
     number of Kohn-Sham states=          152
     kinetic-energy cutoff     =      70.0000  Ry
     charge density cutoff     =     280.0000  Ry
     convergence threshold     =      1.0E-06
     mixing beta               =       0.5000
     number of iterations used =            8  plain     mixing
     Exchange-correlation      = PBE ( 1  4  3  4 0 0)

     celldm(1)=  13.486197  celldm(2)=   0.000000  celldm(3)=   0.000000
     celldm(4)=   0.000000  celldm(5)=   0.000000  celldm(6)=   0.000000

     crystal axes: (cart. coord. in units of alat)
               a(1) = (   1.000000   0.000000   0.000000 )  
               a(2) = (   0.000000   1.000000   0.000000 )  
               a(3) = (   0.000000   0.000000   1.000000 )  

     reciprocal axes: (cart. coord. in units 2 pi/alat)
               b(1) = (  1.000000  0.000000  0.000000 )  
               b(2) = (  0.000000  1.000000  0.000000 )  
               b(3) = (  0.000000  0.000000  1.000000 )  


     PseudoPot. # 1 for C  read from file:
     /home/tjsmart/Pseudo/C_ONCV_PBE-1.0.upf
     MD5 check sum: 72b63e32b2fd29504de26a4901699f60
     Pseudo is Norm-conserving, Zval =  4.0
     Generated using ONCVPSP code by D. R. Hamann
     Using radial grid of 1248 points,  4 beta functions with: 
                l(1) =   0
                l(2) =   0
                l(3) =   1
                l(4) =   1

     PseudoPot. # 2 for N  read from file:
     /home/tjsmart/Pseudo/N_ONCV_PBE-1.0.upf
     MD5 check sum: 09890da6b2972017450f7114a6086fad
     Pseudo is Norm-conserving, Zval =  5.0
     Generated using ONCVPSP code by D. R. Hamann
     Using radial grid of 1058 points,  4 beta functions with: 
                l(1) =   0
                l(2) =   0
                l(3) =   1
                l(4) =   1

     atomic species   valence    mass     pseudopotential
        C              4.00    12.01110     C ( 1.00)
        N              5.00    14.00670     N ( 1.00)

     Starting magnetic structure 
     atomic species   magnetization
        C            0.200
        N            0.200

      6 Sym. Ops. (no inversion) found


                                    s                        frac. trans.

      isym =  1     identity                                     

 cryst.   s( 1) = (     1          0          0      )
                  (     0          1          0      )
                  (     0          0          1      )

 cart.    s( 1) = (  1.0000000  0.0000000  0.0000000 )
                  (  0.0000000  1.0000000  0.0000000 )
                  (  0.0000000  0.0000000  1.0000000 )


      isym =  2     120 deg rotation - cart. axis [-1,-1,-1]     

 cryst.   s( 2) = (     0          0          1      )
                  (     1          0          0      )
                  (     0          1          0      )

 cart.    s( 2) = (  0.0000000  1.0000000  0.0000000 )
                  (  0.0000000  0.0000000  1.0000000 )
                  (  1.0000000  0.0000000  0.0000000 )


      isym =  3     120 deg rotation - cart. axis [1,1,1]        

 cryst.   s( 3) = (     0          1          0      )
                  (     0          0          1      )
                  (     1          0          0      )

 cart.    s( 3) = (  0.0000000  0.0000000  1.0000000 )
                  (  1.0000000  0.0000000  0.0000000 )
                  (  0.0000000  1.0000000  0.0000000 )


      isym =  4     inv. 180 deg rotation - cart. axis [1,-1,0]  

 cryst.   s( 4) = (     0          1          0      )
                  (     1          0          0      )
                  (     0          0          1      )

 cart.    s( 4) = (  0.0000000  1.0000000  0.0000000 )
                  (  1.0000000  0.0000000  0.0000000 )
                  (  0.0000000  0.0000000  1.0000000 )


      isym =  5     inv. 180 deg rotation - cart. axis [-1,0,1]  

 cryst.   s( 5) = (     0          0          1      )
                  (     0          1          0      )
                  (     1          0          0      )

 cart.    s( 5) = (  0.0000000  0.0000000  1.0000000 )
                  (  0.0000000  1.0000000  0.0000000 )
                  (  1.0000000  0.0000000  0.0000000 )


      isym =  6     inv. 180 deg rotation - cart. axis [0,1,-1]  

 cryst.   s( 6) = (     1          0          0      )
                  (     0          0          1      )
                  (     0          1          0      )

 cart.    s( 6) = (  1.0000000  0.0000000  0.0000000 )
                  (  0.0000000  0.0000000  1.0000000 )
                  (  0.0000000  1.0000000  0.0000000 )


     point group C_3v (3m)  
     there are  3 classes
     the character table:

       E     2C3   3s_v 
A_1    1.00  1.00  1.00
A_2    1.00  1.00 -1.00
E      2.00 -1.00  0.00

     the symmetry operations in each class and the name of the first element:

     E        1
          identity                                               
     2C3      2    3
          120 deg rotation - cart. axis [-1,-1,-1]               
     3s_v     4    5    6
          inv. 180 deg rotation - cart. axis [1,-1,0]            

   Cartesian axes

     site n.     atom                  positions (alat units)
         1           C   tau(   1) = (   0.3757371   0.3757371   0.8736885  )
         2           C   tau(   2) = (   0.5000557   0.0001927   0.0001927  )
         3           C   tau(   3) = (   0.5000538  -0.0000756   0.5000538  )
         4           C   tau(   4) = (   0.0001927   0.5000557   0.0001927  )
         5           C   tau(   5) = (  -0.0000756   0.5000538   0.5000538  )
         6           C   tau(   6) = (  -0.0001117  -0.0001117  -0.0001117  )
         7           C   tau(   7) = (   0.0001927   0.0001927   0.5000557  )
         8           C   tau(   8) = (   0.2502251   0.2502251  -0.0012242  )
         9           C   tau(   9) = (   0.2506407   0.2506407   0.4947864  )
        10           C   tau(  10) = (   0.2504037   0.7490289   0.0010006  )
        11           C   tau(  11) = (   0.2526129   0.7477749   0.5016415  )
        12           C   tau(  12) = (   0.7490289   0.2504037   0.0010006  )
        13           C   tau(  13) = (   0.7477749   0.2526129   0.5016415  )
        14           C   tau(  14) = (   0.7496490   0.7496490  -0.0002162  )
        15           C   tau(  15) = (   0.5000538   0.5000538  -0.0000756  )
        16           C   tau(  16) = (   0.7491278   0.7491278   0.4987746  )
        17           C   tau(  17) = (   0.5016415   0.2526129   0.7477749  )
        18           C   tau(  18) = (   0.5016415   0.7477749   0.2526129  )
        19           C   tau(  19) = (   0.4987746   0.7491278   0.7491278  )
        20           C   tau(  20) = (  -0.0012242   0.2502251   0.2502251  )
        21           C   tau(  21) = (   0.0010006   0.2504037   0.7490289  )
        22           C   tau(  22) = (   0.0010006   0.7490289   0.2504037  )
        23           C   tau(  23) = (  -0.0002162   0.7496490   0.7496490  )
        24           C   tau(  24) = (   0.2506407   0.4947864   0.2506407  )
        25           C   tau(  25) = (   0.2526129   0.5016415   0.7477749  )
        26           C   tau(  26) = (   0.2502251  -0.0012242   0.2502251  )
        27           C   tau(  27) = (   0.2504037   0.0010006   0.7490289  )
        28           C   tau(  28) = (   0.7477749   0.5016415   0.2526129  )
        29           C   tau(  29) = (   0.7491278   0.4987746   0.7491278  )
        30           C   tau(  30) = (   0.4947864   0.2506407   0.2506407  )
        31           C   tau(  31) = (   0.7490289   0.0010006   0.2504037  )
        32           C   tau(  32) = (   0.6246711   0.8744331   0.6246711  )
        33           C   tau(  33) = (   0.6347302   0.3673751   0.6347302  )
        34           C   tau(  34) = (   0.3758925   0.8762022   0.8762022  )
        35           C   tau(  35) = (   0.3757371   0.8736885   0.3757371  )
        36           C   tau(  36) = (   0.8762022   0.3758925   0.8762022  )
        37           C   tau(  37) = (   0.8736885   0.3757371   0.3757371  )
        38           C   tau(  38) = (   0.8747078   0.8747078   0.8747078  )
        39           C   tau(  39) = (   0.8762022   0.8762022   0.3758925  )
        40           C   tau(  40) = (   0.1253835   0.1253835   0.8742470  )
        41           C   tau(  41) = (   0.1238572   0.1238572   0.3748662  )
        42           C   tau(  42) = (   0.1243584   0.6245500   0.8758481  )
        43           C   tau(  43) = (   0.1270930   0.6229314   0.3763101  )
        44           C   tau(  44) = (   0.6245500   0.1243584   0.8758481  )
        45           C   tau(  45) = (   0.6229314   0.1270930   0.3763101  )
        46           C   tau(  46) = (   0.6245500   0.8758481   0.1243584  )
        47           C   tau(  47) = (   0.6246711   0.6246711   0.8744331  )
        48           C   tau(  48) = (   0.3748662   0.1238572   0.1238572  )
        49           C   tau(  49) = (   0.3763101   0.1270930   0.6229314  )
        50           C   tau(  50) = (   0.3763101   0.6229314   0.1270930  )
        51           C   tau(  51) = (   0.3673751   0.6347302   0.6347302  )
        52           C   tau(  52) = (   0.8742470   0.1253835   0.1253835  )
        53           C   tau(  53) = (   0.8758481   0.1243584   0.6245500  )
        54           C   tau(  54) = (   0.8758481   0.6245500   0.1243584  )
        55           C   tau(  55) = (   0.8744331   0.6246711   0.6246711  )
        56           C   tau(  56) = (   0.1238572   0.3748662   0.1238572  )
        57           C   tau(  57) = (   0.1270930   0.3763101   0.6229314  )
        58           C   tau(  58) = (   0.1253835   0.8742470   0.1253835  )
        59           C   tau(  59) = (   0.1243584   0.8758481   0.6245500  )
        60           C   tau(  60) = (   0.6229314   0.3763101   0.1270930  )
        61           C   tau(  61) = (   0.6347302   0.6347302   0.3673751  )
        62           C   tau(  62) = (   0.7496490  -0.0002162   0.7496490  )
        63           N   tau(  63) = (   0.3647533   0.3647533   0.3647533  )

   Crystallographic axes

     site n.     atom                  positions (cryst. coord.)
         1           C   tau(   1) = (  0.3757371  0.3757371  0.8736885  )
         2           C   tau(   2) = (  0.5000557  0.0001927  0.0001927  )
         3           C   tau(   3) = (  0.5000538 -0.0000756  0.5000538  )
         4           C   tau(   4) = (  0.0001927  0.5000557  0.0001927  )
         5           C   tau(   5) = ( -0.0000756  0.5000538  0.5000538  )
         6           C   tau(   6) = ( -0.0001117 -0.0001117 -0.0001117  )
         7           C   tau(   7) = (  0.0001927  0.0001927  0.5000557  )
         8           C   tau(   8) = (  0.2502251  0.2502251 -0.0012242  )
         9           C   tau(   9) = (  0.2506407  0.2506407  0.4947864  )
        10           C   tau(  10) = (  0.2504037  0.7490289  0.0010006  )
        11           C   tau(  11) = (  0.2526129  0.7477749  0.5016415  )
        12           C   tau(  12) = (  0.7490289  0.2504037  0.0010006  )
        13           C   tau(  13) = (  0.7477749  0.2526129  0.5016415  )
        14           C   tau(  14) = (  0.7496490  0.7496490 -0.0002162  )
        15           C   tau(  15) = (  0.5000538  0.5000538 -0.0000756  )
        16           C   tau(  16) = (  0.7491278  0.7491278  0.4987746  )
        17           C   tau(  17) = (  0.5016415  0.2526129  0.7477749  )
        18           C   tau(  18) = (  0.5016415  0.7477749  0.2526129  )
        19           C   tau(  19) = (  0.4987746  0.7491278  0.7491278  )
        20           C   tau(  20) = ( -0.0012242  0.2502251  0.2502251  )
        21           C   tau(  21) = (  0.0010006  0.2504037  0.7490289  )
        22           C   tau(  22) = (  0.0010006  0.7490289  0.2504037  )
        23           C   tau(  23) = ( -0.0002162  0.7496490  0.7496490  )
        24           C   tau(  24) = (  0.2506407  0.4947864  0.2506407  )
        25           C   tau(  25) = (  0.2526129  0.5016415  0.7477749  )
        26           C   tau(  26) = (  0.2502251 -0.0012242  0.2502251  )
        27           C   tau(  27) = (  0.2504037  0.0010006  0.7490289  )
        28           C   tau(  28) = (  0.7477749  0.5016415  0.2526129  )
        29           C   tau(  29) = (  0.7491278  0.4987746  0.7491278  )
        30           C   tau(  30) = (  0.4947864  0.2506407  0.2506407  )
        31           C   tau(  31) = (  0.7490289  0.0010006  0.2504037  )
        32           C   tau(  32) = (  0.6246711  0.8744331  0.6246711  )
        33           C   tau(  33) = (  0.6347302  0.3673751  0.6347302  )
        34           C   tau(  34) = (  0.3758925  0.8762022  0.8762022  )
        35           C   tau(  35) = (  0.3757371  0.8736885  0.3757371  )
        36           C   tau(  36) = (  0.8762022  0.3758925  0.8762022  )
        37           C   tau(  37) = (  0.8736885  0.3757371  0.3757371  )
        38           C   tau(  38) = (  0.8747078  0.8747078  0.8747078  )
        39           C   tau(  39) = (  0.8762022  0.8762022  0.3758925  )
        40           C   tau(  40) = (  0.1253835  0.1253835  0.8742470  )
        41           C   tau(  41) = (  0.1238572  0.1238572  0.3748662  )
        42           C   tau(  42) = (  0.1243584  0.6245500  0.8758481  )
        43           C   tau(  43) = (  0.1270930  0.6229314  0.3763101  )
        44           C   tau(  44) = (  0.6245500  0.1243584  0.8758481  )
        45           C   tau(  45) = (  0.6229314  0.1270930  0.3763101  )
        46           C   tau(  46) = (  0.6245500  0.8758481  0.1243584  )
        47           C   tau(  47) = (  0.6246711  0.6246711  0.8744331  )
        48           C   tau(  48) = (  0.3748662  0.1238572  0.1238572  )
        49           C   tau(  49) = (  0.3763101  0.1270930  0.6229314  )
        50           C   tau(  50) = (  0.3763101  0.6229314  0.1270930  )
        51           C   tau(  51) = (  0.3673751  0.6347302  0.6347302  )
        52           C   tau(  52) = (  0.8742470  0.1253835  0.1253835  )
        53           C   tau(  53) = (  0.8758481  0.1243584  0.6245500  )
        54           C   tau(  54) = (  0.8758481  0.6245500  0.1243584  )
        55           C   tau(  55) = (  0.8744331  0.6246711  0.6246711  )
        56           C   tau(  56) = (  0.1238572  0.3748662  0.1238572  )
        57           C   tau(  57) = (  0.1270930  0.3763101  0.6229314  )
        58           C   tau(  58) = (  0.1253835  0.8742470  0.1253835  )
        59           C   tau(  59) = (  0.1243584  0.8758481  0.6245500  )
        60           C   tau(  60) = (  0.6229314  0.3763101  0.1270930  )
        61           C   tau(  61) = (  0.6347302  0.6347302  0.3673751  )
        62           C   tau(  62) = (  0.7496490 -0.0002162  0.7496490  )
        63           N   tau(  63) = (  0.3647533  0.3647533  0.3647533  )

     number of k points=     6  Marzari-Vanderbilt smearing, width (Ry)=  0.0010
                       cart. coord. in units 2pi/alat
        k(    1) = (   0.0000000   0.0000000   0.0000000), wk =   0.0370370
        k(    2) = (   0.0000000   0.0000000   0.3333333), wk =   0.2222222
        k(    3) = (   0.0000000   0.3333333   0.3333333), wk =   0.2222222
        k(    4) = (   0.3333333   0.3333333   0.3333333), wk =   0.0740741
        k(    5) = (  -0.3333333   0.0000000   0.3333333), wk =   0.2222222
        k(    6) = (   0.3333333  -0.3333333   0.3333333), wk =   0.2222222

                       cryst. coord.
        k(    1) = (   0.0000000   0.0000000   0.0000000), wk =   0.0370370
        k(    2) = (   0.0000000   0.0000000   0.3333333), wk =   0.2222222
        k(    3) = (   0.0000000   0.3333333   0.3333333), wk =   0.2222222
        k(    4) = (   0.3333333   0.3333333   0.3333333), wk =   0.0740741
        k(    5) = (  -0.3333333   0.0000000   0.3333333), wk =   0.2222222
        k(    6) = (   0.3333333  -0.3333333   0.3333333), wk =   0.2222222

     Dense  grid:   194039 G-vectors     FFT dimensions: (  72,  72,  72)

     Estimated max dynamical RAM per process >      60.23MB

     Estimated total allocated dynamical RAM >    5782.56MB
     Generating pointlists ...
     new r_m :   0.0855 (alat units)  1.1529 (a.u.) for type    1
     new r_m :   0.0855 (alat units)  1.1529 (a.u.) for type    2

     Initial potential from superposition of free atoms

     starting charge  252.99722, renormalised to  254.00000
     Starting wfc are  252 randomized atomic wfcs

     total cpu time spent up to now is        3.6 secs

     per-process dynamical memory:    59.5 Mb

     Self-consistent Calculation

     iteration #  1     ecut=    70.00 Ry     beta=0.50
     Davidson diagonalization with overlap
     ethr =  1.00E-02,  avg # of iterations =  3.0

     total cpu time spent up to now is        5.9 secs

     total energy              =    -724.34469400 Ry
     Harris-Foulkes estimate   =    -724.78297051 Ry
     estimated scf accuracy    <       4.21990449 Ry

     total magnetization       =     0.00 Bohr mag/cell
     absolute magnetization    =     0.90 Bohr mag/cell

     iteration #  2     ecut=    70.00 Ry     beta=0.50
     Davidson diagonalization with overlap
     ethr =  1.66E-03,  avg # of iterations =  2.0

     total cpu time spent up to now is        7.4 secs

     total energy              =    -724.66918213 Ry
     Harris-Foulkes estimate   =    -724.58527776 Ry
     estimated scf accuracy    <       0.66851087 Ry

     total magnetization       =     0.00 Bohr mag/cell
     absolute magnetization    =     0.35 Bohr mag/cell

     iteration #  3     ecut=    70.00 Ry     beta=0.50
     Davidson diagonalization with overlap
     ethr =  2.63E-04,  avg # of iterations =  8.6

     total cpu time spent up to now is       11.3 secs

     total energy              =    -724.73779406 Ry
     Harris-Foulkes estimate   =    -724.77925802 Ry
     estimated scf accuracy    <       0.15193748 Ry

     total magnetization       =     0.00 Bohr mag/cell
     absolute magnetization    =     0.11 Bohr mag/cell

     iteration #  4     ecut=    70.00 Ry     beta=0.50
     Davidson diagonalization with overlap
     ethr =  5.98E-05,  avg # of iterations =  8.8

     total cpu time spent up to now is       15.2 secs

     total energy              =    -724.77612792 Ry
     Harris-Foulkes estimate   =    -724.77362838 Ry
     estimated scf accuracy    <       0.01294340 Ry

     total magnetization       =    -0.00 Bohr mag/cell
     absolute magnetization    =     0.07 Bohr mag/cell

     iteration #  5     ecut=    70.00 Ry     beta=0.50
     Davidson diagonalization with overlap
     ethr =  5.10E-06,  avg # of iterations =  9.2

     total cpu time spent up to now is       20.2 secs

     total energy              =    -724.77935400 Ry
     Harris-Foulkes estimate   =    -724.77912567 Ry
     estimated scf accuracy    <       0.00151646 Ry

     total magnetization       =     0.00 Bohr mag/cell
     absolute magnetization    =     0.04 Bohr mag/cell

     iteration #  6     ecut=    70.00 Ry     beta=0.50
     Davidson diagonalization with overlap
     ethr =  5.97E-07,  avg # of iterations =  6.2

     total cpu time spent up to now is       23.3 secs

     total energy              =    -724.77960354 Ry
     Harris-Foulkes estimate   =    -724.77963250 Ry
     estimated scf accuracy    <       0.00020044 Ry

     total magnetization       =     0.00 Bohr mag/cell
     absolute magnetization    =     0.02 Bohr mag/cell

     iteration #  7     ecut=    70.00 Ry     beta=0.50
     Davidson diagonalization with overlap
     ethr =  7.89E-08,  avg # of iterations =  3.0

     total cpu time spent up to now is       25.4 secs

     total energy              =    -724.77966111 Ry
     Harris-Foulkes estimate   =    -724.77967024 Ry
     estimated scf accuracy    <       0.00003654 Ry

     total magnetization       =    -0.00 Bohr mag/cell
     absolute magnetization    =     0.01 Bohr mag/cell

     iteration #  8     ecut=    70.00 Ry     beta=0.50
     Davidson diagonalization with overlap
     ethr =  1.44E-08,  avg # of iterations =  2.8

     total cpu time spent up to now is       27.2 secs

     total energy              =    -724.77966896 Ry
     Harris-Foulkes estimate   =    -724.77966894 Ry
     estimated scf accuracy    <       0.00000295 Ry

     total magnetization       =    -0.00 Bohr mag/cell
     absolute magnetization    =     0.01 Bohr mag/cell

     iteration #  9     ecut=    70.00 Ry     beta=0.50
     Davidson diagonalization with overlap
     ethr =  1.16E-09,  avg # of iterations =  3.2
 
     Magnetic moment per site:
     atom:    1    charge:    1.8267    magn:    0.0000    constr:    0.0000
     atom:    2    charge:    1.8434    magn:   -0.0000    constr:    0.0000
     atom:    3    charge:    1.8329    magn:    0.0000    constr:    0.0000
     atom:    4    charge:    1.8434    magn:   -0.0000    constr:    0.0000
     atom:    5    charge:    1.8329    magn:    0.0000    constr:    0.0000
     atom:    6    charge:    1.8223    magn:    0.0000    constr:    0.0000
     atom:    7    charge:    1.8434    magn:   -0.0000    constr:    0.0000
     atom:    8    charge:    1.8260    magn:    0.0000    constr:    0.0000
     atom:    9    charge:    1.8051    magn:   -0.0001    constr:    0.0000
     atom:   10    charge:    1.8202    magn:    0.0000    constr:    0.0000
     atom:   11    charge:    1.8311    magn:    0.0000    constr:    0.0000
     atom:   12    charge:    1.8202    magn:    0.0000    constr:    0.0000
     atom:   13    charge:    1.8311    magn:    0.0000    constr:    0.0000
     atom:   14    charge:    1.8261    magn:    0.0000    constr:    0.0000
     atom:   15    charge:    1.8329    magn:    0.0000    constr:    0.0000
     atom:   16    charge:    1.8347    magn:    0.0000    constr:    0.0000
     atom:   17    charge:    1.8311    magn:    0.0000    constr:    0.0000
     atom:   18    charge:    1.8311    magn:    0.0000    constr:    0.0000
     atom:   19    charge:    1.8347    magn:    0.0000    constr:    0.0000
     atom:   20    charge:    1.8260    magn:    0.0000    constr:    0.0000
     atom:   21    charge:    1.8202    magn:    0.0000    constr:    0.0000
     atom:   22    charge:    1.8202    magn:    0.0000    constr:    0.0000
     atom:   23    charge:    1.8261    magn:    0.0000    constr:    0.0000
     atom:   24    charge:    1.8051    magn:   -0.0001    constr:    0.0000
     atom:   25    charge:    1.8311    magn:    0.0000    constr:    0.0000
     atom:   26    charge:    1.8260    magn:    0.0000    constr:    0.0000
     atom:   27    charge:    1.8202    magn:    0.0000    constr:    0.0000
     atom:   28    charge:    1.8311    magn:    0.0000    constr:    0.0000
     atom:   29    charge:    1.8347    magn:    0.0000    constr:    0.0000
     atom:   30    charge:    1.8051    magn:   -0.0001    constr:    0.0000
     atom:   31    charge:    1.8202    magn:    0.0000    constr:    0.0000
     atom:   32    charge:    1.8259    magn:    0.0000    constr:    0.0000
     atom:   33    charge:    1.8349    magn:    0.0000    constr:    0.0000
     atom:   34    charge:    1.8240    magn:    0.0000    constr:    0.0000
     atom:   35    charge:    1.8267    magn:    0.0000    constr:    0.0000
     atom:   36    charge:    1.8240    magn:    0.0000    constr:    0.0000
     atom:   37    charge:    1.8267    magn:    0.0000    constr:    0.0000
     atom:   38    charge:    1.8278    magn:    0.0000    constr:    0.0000
     atom:   39    charge:    1.8240    magn:    0.0000    constr:    0.0000
     atom:   40    charge:    1.8289    magn:    0.0000    constr:    0.0000
     atom:   41    charge:    1.8363    magn:    0.0000    constr:    0.0000
     atom:   42    charge:    1.8247    magn:    0.0000    constr:    0.0000
     atom:   43    charge:    1.8223    magn:    0.0000    constr:    0.0000
     atom:   44    charge:    1.8247    magn:    0.0000    constr:    0.0000
     atom:   45    charge:    1.8223    magn:    0.0000    constr:    0.0000
     atom:   46    charge:    1.8247    magn:    0.0000    constr:    0.0000
     atom:   47    charge:    1.8259    magn:    0.0000    constr:    0.0000
     atom:   48    charge:    1.8363    magn:    0.0000    constr:    0.0000
     atom:   49    charge:    1.8223    magn:    0.0000    constr:    0.0000
     atom:   50    charge:    1.8223    magn:    0.0000    constr:    0.0000
     atom:   51    charge:    1.8349    magn:    0.0000    constr:    0.0000
     atom:   52    charge:    1.8289    magn:    0.0000    constr:    0.0000
     atom:   53    charge:    1.8247    magn:    0.0000    constr:    0.0000
     atom:   54    charge:    1.8247    magn:    0.0000    constr:    0.0000
     atom:   55    charge:    1.8259    magn:    0.0000    constr:    0.0000
     atom:   56    charge:    1.8363    magn:    0.0000    constr:    0.0000
     atom:   57    charge:    1.8223    magn:    0.0000    constr:    0.0000
     atom:   58    charge:    1.8289    magn:    0.0000    constr:    0.0000
     atom:   59    charge:    1.8247    magn:    0.0000    constr:    0.0000
     atom:   60    charge:    1.8223    magn:    0.0000    constr:    0.0000
     atom:   61    charge:    1.8349    magn:    0.0000    constr:    0.0000
     atom:   62    charge:    1.8261    magn:    0.0000    constr:    0.0000
     atom:   63    charge:    2.9179    magn:    0.0006    constr:    0.0000

     total cpu time spent up to now is       29.5 secs

     End of self-consistent calculation

 ------ SPIN UP ------------


          k = 0.0000 0.0000 0.0000 ( 24207 PWs)   bands (ev):

    -8.5606  -6.9669  -6.2763  -6.2763  -6.1639  -6.1639  -5.8848  -4.9355
    -4.1363  -4.1363  -4.1067  -4.1067  -4.0263  -4.0263  -3.9994  -3.9401
    -3.8752  -3.8752  -3.3612  -2.9688  -2.6768  -2.6768  -2.0891  -0.3804
    -0.3804  -0.3533  -0.3208  -0.1038   0.1657   0.1657   0.2774   0.2774
     0.3511   0.5888   0.8047   0.8047   0.9631   0.9631   0.9941   1.0120
     1.0120   1.0362   1.3270   1.3270   3.0505   3.8964   3.8964   4.0232
     4.2033   4.2066   4.2066   4.2187   4.2490   4.2490   4.4077   4.4077
     4.4606   4.4606   4.5697   4.6332   4.6332   4.6361   4.6455   4.7349
     4.7349   4.8677   4.9277   4.9277   5.0401   5.1988   5.1988   5.2603
     5.3202   5.3202   5.3586   5.3916   5.3916   6.0032   6.0032   6.0285
     6.5921   6.5921   6.7026   6.9697   7.0086   7.0086   7.5108   8.2979
     8.2979   8.3644   8.4367   8.4367   8.6159   8.6159   8.7669   8.7839
     8.7839   8.7851   8.8393   8.8393   8.8688   9.2284   9.2349   9.2349
     9.6573   9.6573   9.8606   9.8731   9.8731   9.8800   9.9050   9.9373
     9.9373   9.9417   9.9673   9.9673  10.0678  10.0678  10.2248  10.2248
    10.2826  11.0566  12.2593  12.4382  12.4382  13.9101  15.2971  15.2971
    17.3090  17.3344  17.3344  17.4949  17.5195  17.5195  17.8153  17.8786
    17.8786  17.9663  17.9663  18.3434  18.8950  18.8950  18.9263  20.6304
    20.7602  20.7602  20.8031  20.8864  20.8864  20.9645  20.9645  20.9971

     occupation numbers 
     1.0000   1.0000   1.0000   1.0000   1.0000   1.0000   1.0000   1.0000
     1.0000   1.0000   1.0000   1.0000   1.0000   1.0000   1.0000   1.0000
     1.0000   1.0000   1.0000   1.0000   1.0000   1.0000   1.0000   1.0000
     1.0000   1.0000   1.0000   1.0000   1.0000   1.0000   1.0000   1.0000
     1.0000   1.0000   1.0000   1.0000   1.0000   1.0000   1.0000   1.0000
     1.0000   1.0000   1.0000   1.0000   1.0000   1.0000   1.0000   1.0000
     1.0000   1.0000   1.0000   1.0000   1.0000   1.0000   1.0000   1.0000
     1.0000   1.0000   1.0000   1.0000   1.0000   1.0000   1.0000   1.0000
     1.0000   1.0000   1.0000   1.0000   1.0000   1.0000   1.0000   1.0000
     1.0000   1.0000   1.0000   1.0000   1.0000   1.0000   1.0000   1.0000
     1.0000   1.0000   1.0000   1.0000   1.0000   1.0000   1.0000   1.0000
     1.0000   1.0000   1.0000   1.0000   1.0000   1.0000   1.0000   1.0000
     1.0000   1.0000   1.0000   1.0000   1.0000   1.0000   1.0000   1.0000
     1.0000   1.0000   1.0000   1.0000   1.0000   1.0000   1.0000   1.0000
     1.0000   1.0000   1.0000   1.0000   1.0000   1.0000   1.0000   1.0000
     1.0000   1.0000   1.0000   1.0000   1.0000   1.0000   0.0000   0.0000
     0.0000   0.0000   0.0000   0.0000   0.0000   0.0000   0.0000   0.0000
     0.0000   0.0000   0.0000   0.0000   0.0000   0.0000   0.0000   0.0000
     0.0000   0.0000   0.0000   0.0000   0.0000   0.0000   0.0000   0.0000

          k = 0.0000 0.0000 0.3333 ( 24280 PWs)   bands (ev):

    -8.3311  -7.5615  -6.5687  -6.0310  -5.9235  -5.8180  -5.4925  -5.2903
    -5.1684  -4.9771  -4.5115  -4.1259  -3.8045  -3.7908  -3.6821  -3.4405
    -3.2000  -3.1491  -2.9265  -2.6017  -2.5019  -2.3822  -2.3202  -1.7716
    -0.8385  -0.6898  -0.5791  -0.3404   0.1752   0.2615   0.3666   0.4039
     0.4764   0.5608   0.5744   0.6626   0.7255   0.7438   0.9867   1.4776
     1.9874   2.0139   2.1572   2.2287   2.4200   2.4815   2.4880   2.7482
     2.9482   3.0027   3.1679   3.1737   3.8933   3.9698   4.0554   4.0673
     4.2957   4.3695   4.5089   4.5539   5.0783   5.1078   5.1421   5.2057
     5.2118   5.5899   5.6156   5.7161   5.7500   6.0660   6.1089   6.1875
     6.1913   6.3256   6.3967   6.4586   6.5094   6.6163   6.6248   6.7471
     6.7658   6.8868   6.9101   6.9372   7.1479   7.1582   7.1828   7.2666
     7.4121   7.4794   7.6755   7.7740   7.8257   8.0577   8.1422   8.2793
     8.3046   8.4455   8.6743   8.7143   8.7693   9.0990   9.1969   9.3468
     9.3809   9.6278   9.6589   9.7128   9.7887   9.9216   9.9345   9.9590
     9.9669  10.0228  10.1093  10.1106  10.1824  10.2672  10.2690  10.3600
    10.3716  11.3701  11.7121  11.7192  12.0334  13.6460  14.9875  15.1611
    17.1898  17.2999  17.9537  18.3231  18.3548  18.4918  18.5059  18.6111
    18.8237  18.8315  18.9721  19.0804  19.2094  19.8310  19.8616  20.5011
    20.6640  20.6891  20.7861  20.7939  20.8263  20.8716  20.9084  20.9417

     occupation numbers 
     1.0000   1.0000   1.0000   1.0000   1.0000   1.0000   1.0000   1.0000
     1.0000   1.0000   1.0000   1.0000   1.0000   1.0000   1.0000   1.0000
     1.0000   1.0000   1.0000   1.0000   1.0000   1.0000   1.0000   1.0000
     1.0000   1.0000   1.0000   1.0000   1.0000   1.0000   1.0000   1.0000
     1.0000   1.0000   1.0000   1.0000   1.0000   1.0000   1.0000   1.0000
     1.0000   1.0000   1.0000   1.0000   1.0000   1.0000   1.0000   1.0000
     1.0000   1.0000   1.0000   1.0000   1.0000   1.0000   1.0000   1.0000
     1.0000   1.0000   1.0000   1.0000   1.0000   1.0000   1.0000   1.0000
     1.0000   1.0000   1.0000   1.0000   1.0000   1.0000   1.0000   1.0000
     1.0000   1.0000   1.0000   1.0000   1.0000   1.0000   1.0000   1.0000
     1.0000   1.0000   1.0000   1.0000   1.0000   1.0000   1.0000   1.0000
     1.0000   1.0000   1.0000   1.0000   1.0000   1.0000   1.0000   1.0000
     1.0000   1.0000   1.0000   1.0000   1.0000   1.0000   1.0000   1.0000
     1.0000   1.0000   1.0000   1.0000   1.0000   1.0000   1.0000   1.0000
     1.0000   1.0000   1.0000   1.0000   1.0000   1.0000   1.0000   1.0000
     1.0000   1.0000   1.0000   1.0000   1.0000   1.0000   1.0000   0.0000
     0.0000   0.0000   0.0000   0.0000   0.0000   0.0000   0.0000   0.0000
     0.0000   0.0000   0.0000   0.0000   0.0000   0.0000   0.0000   0.0000
     0.0000   0.0000   0.0000   0.0000   0.0000   0.0000   0.0000   0.0000

          k = 0.0000 0.3333 0.3333 ( 24236 PWs)   bands (ev):

    -8.1168  -7.3843  -7.2253  -6.5703  -5.9564  -5.6656  -5.3286  -5.0071
    -4.9910  -4.8419  -4.4916  -4.2545  -4.2187  -3.9351  -3.5357  -3.5069
    -2.7713  -2.3711  -2.3283  -2.3175  -2.1966  -2.1867  -2.0433  -1.8819
    -1.4880  -1.3151  -1.0925  -0.9178  -0.5366  -0.0243   0.0618   0.1302
     0.1819   0.4817   0.6910   1.1888   1.2062   1.3146   1.3850   1.3998
     1.4543   1.4617   1.9469   2.0648   2.1367   2.4056   2.7280   2.8252
     2.9724   3.5144   3.6544   3.7015   3.7801   3.8182   3.9741   4.0441
     4.1241   4.5512   4.6773   4.8254   5.0370   5.0468   5.1449   5.3004
     5.3462   5.5923   5.6550   5.6914   5.7498   5.9765   6.0290   6.0793
     6.1432   6.2361   6.2776   6.4910   6.5454   6.6030   6.6566   6.8585
     6.9186   6.9493   7.0439   7.0474   7.2320   7.2917   7.4986   7.7061
     7.9365   7.9476   8.0734   8.0971   8.1199   8.2248   8.2652   8.3378
     8.3463   8.4054   8.5345   8.6404   8.6988   8.7053   8.8430   8.8969
     9.0793   9.2037   9.2419   9.3123   9.4692   9.4794   9.5767   9.6397
     9.7072   9.7914   9.9090  10.0457  10.0524  10.1299  10.4402  10.7580
    11.0161  11.2124  11.5488  11.8586  12.2299  13.4493  14.9217  15.2267
    18.0838  18.1942  18.2261  18.3050  18.3606  18.8346  18.8546  18.9984
    19.1810  19.2289  19.4416  19.4787  19.6994  19.8176  19.9724  20.0215
    20.1980  20.4511  20.4818  20.5051  20.5655  20.6006  20.6145  20.6530

     occupation numbers 
     1.0000   1.0000   1.0000   1.0000   1.0000   1.0000   1.0000   1.0000
     1.0000   1.0000   1.0000   1.0000   1.0000   1.0000   1.0000   1.0000
     1.0000   1.0000   1.0000   1.0000   1.0000   1.0000   1.0000   1.0000
     1.0000   1.0000   1.0000   1.0000   1.0000   1.0000   1.0000   1.0000
     1.0000   1.0000   1.0000   1.0000   1.0000   1.0000   1.0000   1.0000
     1.0000   1.0000   1.0000   1.0000   1.0000   1.0000   1.0000   1.0000
     1.0000   1.0000   1.0000   1.0000   1.0000   1.0000   1.0000   1.0000
     1.0000   1.0000   1.0000   1.0000   1.0000   1.0000   1.0000   1.0000
     1.0000   1.0000   1.0000   1.0000   1.0000   1.0000   1.0000   1.0000
     1.0000   1.0000   1.0000   1.0000   1.0000   1.0000   1.0000   1.0000
     1.0000   1.0000   1.0000   1.0000   1.0000   1.0000   1.0000   1.0000
     1.0000   1.0000   1.0000   1.0000   1.0000   1.0000   1.0000   1.0000
     1.0000   1.0000   1.0000   1.0000   1.0000   1.0000   1.0000   1.0000
     1.0000   1.0000   1.0000   1.0000   1.0000   1.0000   1.0000   1.0000
     1.0000   1.0000   1.0000   1.0000   1.0000   1.0000   1.0000   1.0000
     1.0000   1.0000   1.0000   1.0000   1.0000   1.0000   1.0000   0.0000
     0.0000   0.0000   0.0000   0.0000   0.0000   0.0000   0.0000   0.0000
     0.0000   0.0000   0.0000   0.0000   0.0000   0.0000   0.0000   0.0000
     0.0000   0.0000   0.0000   0.0000   0.0000   0.0000   0.0000   0.0000

          k = 0.3333 0.3333 0.3333 ( 24303 PWs)   bands (ev):

    -7.9224  -7.2123  -6.9770  -6.9770  -6.2927  -6.2190  -6.2190  -5.4520
    -4.1978  -4.0287  -4.0287  -3.5261  -3.3837  -3.3837  -3.3218  -3.3218
    -3.2960  -2.9019  -2.6685  -2.6685  -1.9452  -1.9051  -1.9051  -1.5361
    -1.4493  -1.4493  -1.4015  -1.4015  -1.3302  -1.2210  -1.2210   0.0716
     0.8448   0.8448   0.9804   0.9940   0.9940   1.3054   1.8396   1.8396
     1.8724   1.9092   2.0077   2.0077   2.5980   2.5980   2.6004   2.7048
     2.7334   2.7334   3.1464   3.1464   3.5390   4.0797   4.2931   4.2931
     4.8100   4.9280   4.9280   4.9619   5.0905   5.0905   5.1521   5.3090
     5.3090   5.3974   5.5106   5.5106   5.5798   5.5798   5.6295   6.3862
     6.7257   6.7257   6.9623   7.0002   7.0002   7.0059   7.0934   7.0934
     7.1976   7.1976   7.2513   7.2533   7.2659   7.2659   7.3666   7.3666
     7.3776   7.4972   7.7297   7.7297   7.9229   7.9229   7.9554   8.0023
     8.1867   8.1867   8.2902   8.3027   8.3027   8.4394   8.4520   8.4520
     8.6840   8.6840   8.8589   9.0732   9.1085   9.5398   9.5398   9.7895
     9.7895  10.4893  10.4893  10.5128  10.5832  10.9534  10.9534  11.2623
    11.2623  11.3027  11.4874  11.6679  11.6679  13.3612  15.2201  15.2201
    18.1576  18.2438  18.2438  18.4699  18.6422  18.6422  19.2484  19.3991
    19.3991  19.5458  19.5458  19.5745  19.6293  19.6293  19.6799  19.7425
    19.7425  19.8632  19.9213  19.9214  20.0066  20.0069  20.0260  20.1663

     occupation numbers 
     1.0000   1.0000   1.0000   1.0000   1.0000   1.0000   1.0000   1.0000
     1.0000   1.0000   1.0000   1.0000   1.0000   1.0000   1.0000   1.0000
     1.0000   1.0000   1.0000   1.0000   1.0000   1.0000   1.0000   1.0000
     1.0000   1.0000   1.0000   1.0000   1.0000   1.0000   1.0000   1.0000
     1.0000   1.0000   1.0000   1.0000   1.0000   1.0000   1.0000   1.0000
     1.0000   1.0000   1.0000   1.0000   1.0000   1.0000   1.0000   1.0000
     1.0000   1.0000   1.0000   1.0000   1.0000   1.0000   1.0000   1.0000
     1.0000   1.0000   1.0000   1.0000   1.0000   1.0000   1.0000   1.0000
     1.0000   1.0000   1.0000   1.0000   1.0000   1.0000   1.0000   1.0000
     1.0000   1.0000   1.0000   1.0000   1.0000   1.0000   1.0000   1.0000
     1.0000   1.0000   1.0000   1.0000   1.0000   1.0000   1.0000   1.0000
     1.0000   1.0000   1.0000   1.0000   1.0000   1.0000   1.0000   1.0000
     1.0000   1.0000   1.0000   1.0000   1.0000   1.0000   1.0000   1.0000
     1.0000   1.0000   1.0000   1.0000   1.0000   1.0000   1.0000   1.0000
     1.0000   1.0000   1.0000   1.0000   1.0000   1.0000   1.0000   1.0000
     1.0000   1.0000   1.0000   1.0000   1.0000   1.0000   0.0000   0.0000
     0.0000   0.0000   0.0000   0.0000   0.0000   0.0000   0.0000   0.0000
     0.0000   0.0000   0.0000   0.0000   0.0000   0.0000   0.0000   0.0000
     0.0000   0.0000   0.0000   0.0000   0.0000   0.0000   0.0000   0.0000

          k =-0.3333 0.0000 0.3333 ( 24236 PWs)   bands (ev):

    -8.1029  -7.5013  -7.1004  -6.5568  -5.9953  -5.6713  -5.3660  -5.0290
    -4.9283  -4.7631  -4.5134  -4.2934  -4.2253  -4.0419  -3.5860  -3.3302
    -2.7650  -2.4026  -2.3608  -2.2901  -2.1925  -2.1660  -2.0969  -1.6558
    -1.6373  -1.3102  -1.1134  -0.9850  -0.5895   0.0107   0.0776   0.1183
     0.2709   0.4939   0.8825   1.0568   1.2102   1.2262   1.2528   1.3985
     1.4830   1.5804   1.8646   1.9075   2.1369   2.5900   2.6822   2.8661
     2.9499   3.5067   3.6558   3.7125   3.7881   3.8921   4.0265   4.1152
     4.1776   4.3974   4.6236   4.8123   4.9689   5.0212   5.1859   5.2508
     5.4212   5.5676   5.6483   5.6890   5.7966   6.0365   6.0833   6.1344
     6.1785   6.2214   6.2709   6.4361   6.4770   6.6193   6.6418   6.8186
     6.8920   6.9660   7.0142   7.0967   7.2325   7.3906   7.5074   7.6796
     7.8511   7.8961   7.9684   8.0825   8.1785   8.2144   8.2588   8.2860
     8.3761   8.4361   8.5497   8.5929   8.7361   8.7506   8.8939   8.9586
     9.0781   9.1397   9.2324   9.3223   9.4521   9.4973   9.5183   9.6601
     9.7342   9.7511   9.9403  10.0290  10.0739  10.0951  10.5064  10.8816
    10.9806  11.1563  11.5067  11.7632  12.2385  13.7041  14.8361  15.1207
    18.0598  18.2032  18.2626  18.3133  18.3679  18.8014  18.9234  19.0975
    19.1529  19.2804  19.3549  19.4882  19.6981  19.8426  19.8927  20.0309
    20.2485  20.3659  20.4296  20.5215  20.5600  20.5971  20.6384  20.6796

     occupation numbers 
     1.0000   1.0000   1.0000   1.0000   1.0000   1.0000   1.0000   1.0000
     1.0000   1.0000   1.0000   1.0000   1.0000   1.0000   1.0000   1.0000
     1.0000   1.0000   1.0000   1.0000   1.0000   1.0000   1.0000   1.0000
     1.0000   1.0000   1.0000   1.0000   1.0000   1.0000   1.0000   1.0000
     1.0000   1.0000   1.0000   1.0000   1.0000   1.0000   1.0000   1.0000
     1.0000   1.0000   1.0000   1.0000   1.0000   1.0000   1.0000   1.0000
     1.0000   1.0000   1.0000   1.0000   1.0000   1.0000   1.0000   1.0000
     1.0000   1.0000   1.0000   1.0000   1.0000   1.0000   1.0000   1.0000
     1.0000   1.0000   1.0000   1.0000   1.0000   1.0000   1.0000   1.0000
     1.0000   1.0000   1.0000   1.0000   1.0000   1.0000   1.0000   1.0000
     1.0000   1.0000   1.0000   1.0000   1.0000   1.0000   1.0000   1.0000
     1.0000   1.0000   1.0000   1.0000   1.0000   1.0000   1.0000   1.0000
     1.0000   1.0000   1.0000   1.0000   1.0000   1.0000   1.0000   1.0000
     1.0000   1.0000   1.0000   1.0000   1.0000   1.0000   1.0000   1.0000
     1.0000   1.0000   1.0000   1.0000   1.0000   1.0000   1.0000   1.0000
     1.0000   1.0000   1.0000   1.0000   1.0000   1.0000   1.0000   0.5000
     0.0000   0.0000   0.0000   0.0000   0.0000   0.0000   0.0000   0.0000
     0.0000   0.0000   0.0000   0.0000   0.0000   0.0000   0.0000   0.0000
     0.0000   0.0000   0.0000   0.0000   0.0000   0.0000   0.0000   0.0000

          k = 0.3333-0.3333 0.3333 ( 24303 PWs)   bands (ev):

    -7.8960  -7.3532  -6.9773  -6.8238  -6.4652  -6.2180  -5.9824  -5.4896
    -4.4826  -4.0303  -3.9340  -3.7078  -3.4096  -3.3588  -3.3129  -3.2183
    -3.0745  -2.8849  -2.6878  -2.4247  -2.0619  -1.8850  -1.8511  -1.7159
    -1.4861  -1.4601  -1.4242  -1.3562  -1.3557  -1.2603  -1.1754  -0.0517
     0.7570   0.8773   0.9628   0.9984   1.0640   1.4215   1.7449   1.7817
     1.8590   1.9450   2.0440   2.2421   2.5800   2.6159   2.6873   2.7050
     2.7227   2.7806   2.9218   3.1783   3.5111   3.9964   4.2381   4.3119
     4.8262   4.8294   4.8572   5.0121   5.0271   5.0695   5.1971   5.2565
     5.2826   5.4384   5.4437   5.5036   5.6855   5.7754   5.8290   6.4638
     6.7036   6.7606   6.9236   6.9304   6.9706   7.0517   7.0725   7.0959
     7.1656   7.1869   7.2337   7.2649   7.2697   7.3204   7.3344   7.3550
     7.3785   7.4631   7.7382   7.7425   7.8281   7.9280   7.9525   7.9626
     8.1326   8.1575   8.2701   8.2877   8.3723   8.3922   8.4119   8.4893
     8.7022   8.7313   8.9678   8.9868   9.1201   9.5333   9.5918   9.6979
     9.8832  10.4061  10.5149  10.5219  10.5561  10.9331  10.9453  11.2060
    11.2274  11.2943  11.4551  11.7251  11.7370  13.7292  14.9045  15.2095
    18.1219  18.2595  18.3413  18.5430  18.6573  18.7259  19.2103  19.3956
    19.4348  19.5111  19.5348  19.5528  19.6089  19.6291  19.6623  19.7280
    19.7432  19.7943  19.9167  19.9243  19.9910  19.9973  20.0434  20.1543

     occupation numbers 
     1.0000   1.0000   1.0000   1.0000   1.0000   1.0000   1.0000   1.0000
     1.0000   1.0000   1.0000   1.0000   1.0000   1.0000   1.0000   1.0000
     1.0000   1.0000   1.0000   1.0000   1.0000   1.0000   1.0000   1.0000
     1.0000   1.0000   1.0000   1.0000   1.0000   1.0000   1.0000   1.0000
     1.0000   1.0000   1.0000   1.0000   1.0000   1.0000   1.0000   1.0000
     1.0000   1.0000   1.0000   1.0000   1.0000   1.0000   1.0000   1.0000
     1.0000   1.0000   1.0000   1.0000   1.0000   1.0000   1.0000   1.0000
     1.0000   1.0000   1.0000   1.0000   1.0000   1.0000   1.0000   1.0000
     1.0000   1.0000   1.0000   1.0000   1.0000   1.0000   1.0000   1.0000
     1.0000   1.0000   1.0000   1.0000   1.0000   1.0000   1.0000   1.0000
     1.0000   1.0000   1.0000   1.0000   1.0000   1.0000   1.0000   1.0000
     1.0000   1.0000   1.0000   1.0000   1.0000   1.0000   1.0000   1.0000
     1.0000   1.0000   1.0000   1.0000   1.0000   1.0000   1.0000   1.0000
     1.0000   1.0000   1.0000   1.0000   1.0000   1.0000   1.0000   1.0000
     1.0000   1.0000   1.0000   1.0000   1.0000   1.0000   1.0000   1.0000
     1.0000   1.0000   1.0000   1.0000   1.0000   1.0000   1.0000   0.0000
     0.0000   0.0000   0.0000   0.0000   0.0000   0.0000   0.0000   0.0000
     0.0000   0.0000   0.0000   0.0000   0.0000   0.0000   0.0000   0.0000
     0.0000   0.0000   0.0000   0.0000   0.0000   0.0000   0.0000   0.0000

 ------ SPIN DOWN ----------


          k = 0.0000 0.0000 0.0000 ( 24207 PWs)   bands (ev):

    -8.5607  -6.9664  -6.2765  -6.2765  -6.1640  -6.1640  -5.8849  -4.9351
    -4.1365  -4.1365  -4.1069  -4.1069  -4.0264  -4.0264  -3.9995  -3.9402
    -3.8753  -3.8753  -3.3613  -2.9688  -2.6770  -2.6770  -2.0890  -0.3805
    -0.3805  -0.3535  -0.3209  -0.1036   0.1656   0.1656   0.2773   0.2773
     0.3510   0.5888   0.8046   0.8046   0.9630   0.9630   0.9940   1.0120
     1.0120   1.0362   1.3270   1.3270   3.0505   3.8965   3.8965   4.0231
     4.2032   4.2066   4.2066   4.2186   4.2489   4.2489   4.4076   4.4076
     4.4605   4.4605   4.5696   4.6331   4.6331   4.6360   4.6454   4.7348
     4.7348   4.8676   4.9276   4.9276   5.0400   5.1988   5.1988   5.2602
     5.3200   5.3200   5.3586   5.3916   5.3916   6.0032   6.0032   6.0285
     6.5922   6.5922   6.7026   6.9697   7.0087   7.0087   7.5108   8.2980
     8.2980   8.3644   8.4367   8.4367   8.6159   8.6159   8.7668   8.7838
     8.7838   8.7852   8.8393   8.8393   8.8688   9.2284   9.2349   9.2349
     9.6574   9.6574   9.8606   9.8731   9.8731   9.8800   9.9051   9.9373
     9.9373   9.9417   9.9673   9.9673  10.0678  10.0678  10.2249  10.2249
    10.2827  11.0571  12.2593  12.4382  12.4382  13.9109  15.2971  15.2971
    17.3091  17.3343  17.3343  17.4948  17.5195  17.5195  17.8153  17.8785
    17.8785  17.9662  17.9662  18.3432  18.8950  18.8950  18.9264  20.6307
    20.7601  20.7601  20.8032  20.8864  20.8865  20.9645  20.9647  20.9968

     occupation numbers 
     1.0000   1.0000   1.0000   1.0000   1.0000   1.0000   1.0000   1.0000
     1.0000   1.0000   1.0000   1.0000   1.0000   1.0000   1.0000   1.0000
     1.0000   1.0000   1.0000   1.0000   1.0000   1.0000   1.0000   1.0000
     1.0000   1.0000   1.0000   1.0000   1.0000   1.0000   1.0000   1.0000
     1.0000   1.0000   1.0000   1.0000   1.0000   1.0000   1.0000   1.0000
     1.0000   1.0000   1.0000   1.0000   1.0000   1.0000   1.0000   1.0000
     1.0000   1.0000   1.0000   1.0000   1.0000   1.0000   1.0000   1.0000
     1.0000   1.0000   1.0000   1.0000   1.0000   1.0000   1.0000   1.0000
     1.0000   1.0000   1.0000   1.0000   1.0000   1.0000   1.0000   1.0000
     1.0000   1.0000   1.0000   1.0000   1.0000   1.0000   1.0000   1.0000
     1.0000   1.0000   1.0000   1.0000   1.0000   1.0000   1.0000   1.0000
     1.0000   1.0000   1.0000   1.0000   1.0000   1.0000   1.0000   1.0000
     1.0000   1.0000   1.0000   1.0000   1.0000   1.0000   1.0000   1.0000
     1.0000   1.0000   1.0000   1.0000   1.0000   1.0000   1.0000   1.0000
     1.0000   1.0000   1.0000   1.0000   1.0000   1.0000   1.0000   1.0000
     1.0000   1.0000   1.0000   1.0000   1.0000   1.0000   0.0000   0.0000
     0.0000   0.0000   0.0000   0.0000   0.0000   0.0000   0.0000   0.0000
     0.0000   0.0000   0.0000   0.0000   0.0000   0.0000   0.0000   0.0000
     0.0000   0.0000   0.0000   0.0000   0.0000   0.0000   0.0000   0.0000

          k = 0.0000 0.0000 0.3333 ( 24280 PWs)   bands (ev):

    -8.3311  -7.5615  -6.5683  -6.0312  -5.9236  -5.8181  -5.4925  -5.2905
    -5.1686  -4.9773  -4.5116  -4.1258  -3.8047  -3.7910  -3.6822  -3.4405
    -3.2002  -3.1492  -2.9266  -2.6018  -2.5021  -2.3823  -2.3204  -1.7716
    -0.8385  -0.6899  -0.5792  -0.3404   0.1752   0.2614   0.3665   0.4038
     0.4763   0.5607   0.5742   0.6625   0.7255   0.7437   0.9866   1.4775
     1.9874   2.0139   2.1572   2.2286   2.4199   2.4814   2.4879   2.7481
     2.9482   3.0026   3.1678   3.1736   3.8932   3.9697   4.0553   4.0672
     4.2956   4.3694   4.5088   4.5538   5.0783   5.1078   5.1421   5.2056
     5.2117   5.5899   5.6156   5.7161   5.7500   6.0660   6.1089   6.1874
     6.1912   6.3256   6.3966   6.4585   6.5094   6.6163   6.6248   6.7471
     6.7658   6.8868   6.9101   6.9371   7.1479   7.1582   7.1827   7.2666
     7.4121   7.4794   7.6755   7.7740   7.8257   8.0577   8.1423   8.2793
     8.3046   8.4455   8.6743   8.7144   8.7693   9.0990   9.1969   9.3468
     9.3810   9.6278   9.6589   9.7128   9.7887   9.9216   9.9345   9.9590
     9.9670  10.0228  10.1093  10.1107  10.1824  10.2672  10.2690  10.3601
    10.3716  11.3706  11.7121  11.7191  12.0335  13.6468  14.9874  15.1611
    17.1898  17.2999  17.9537  18.3232  18.3548  18.4918  18.5059  18.6112
    18.8238  18.8315  18.9721  19.0803  19.2094  19.8312  19.8618  20.5013
    20.6641  20.6891  20.7862  20.7939  20.8264  20.8717  20.9085  20.9416

     occupation numbers 
     1.0000   1.0000   1.0000   1.0000   1.0000   1.0000   1.0000   1.0000
     1.0000   1.0000   1.0000   1.0000   1.0000   1.0000   1.0000   1.0000
     1.0000   1.0000   1.0000   1.0000   1.0000   1.0000   1.0000   1.0000
     1.0000   1.0000   1.0000   1.0000   1.0000   1.0000   1.0000   1.0000
     1.0000   1.0000   1.0000   1.0000   1.0000   1.0000   1.0000   1.0000
     1.0000   1.0000   1.0000   1.0000   1.0000   1.0000   1.0000   1.0000
     1.0000   1.0000   1.0000   1.0000   1.0000   1.0000   1.0000   1.0000
     1.0000   1.0000   1.0000   1.0000   1.0000   1.0000   1.0000   1.0000
     1.0000   1.0000   1.0000   1.0000   1.0000   1.0000   1.0000   1.0000
     1.0000   1.0000   1.0000   1.0000   1.0000   1.0000   1.0000   1.0000
     1.0000   1.0000   1.0000   1.0000   1.0000   1.0000   1.0000   1.0000
     1.0000   1.0000   1.0000   1.0000   1.0000   1.0000   1.0000   1.0000
     1.0000   1.0000   1.0000   1.0000   1.0000   1.0000   1.0000   1.0000
     1.0000   1.0000   1.0000   1.0000   1.0000   1.0000   1.0000   1.0000
     1.0000   1.0000   1.0000   1.0000   1.0000   1.0000   1.0000   1.0000
     1.0000   1.0000   1.0000   1.0000   1.0000   1.0000   1.0000   0.0000
     0.0000   0.0000   0.0000   0.0000   0.0000   0.0000   0.0000   0.0000
     0.0000   0.0000   0.0000   0.0000   0.0000   0.0000   0.0000   0.0000
     0.0000   0.0000   0.0000   0.0000   0.0000   0.0000   0.0000   0.0000

          k = 0.0000 0.3333 0.3333 ( 24236 PWs)   bands (ev):

    -8.1168  -7.3842  -7.2255  -6.5703  -5.9564  -5.6657  -5.3285  -5.0072
    -4.9912  -4.8420  -4.4916  -4.2546  -4.2188  -3.9352  -3.5357  -3.5071
    -2.7711  -2.3712  -2.3284  -2.3176  -2.1967  -2.1868  -2.0434  -1.8819
    -1.4882  -1.3153  -1.0925  -0.9178  -0.5366  -0.0243   0.0617   0.1301
     0.1818   0.4816   0.6909   1.1887   1.2061   1.3145   1.3849   1.3997
     1.4542   1.4617   1.9468   2.0647   2.1367   2.4056   2.7279   2.8252
     2.9724   3.5143   3.6543   3.7014   3.7801   3.8181   3.9741   4.0441
     4.1241   4.5511   4.6772   4.8254   5.0369   5.0468   5.1448   5.3004
     5.3462   5.5922   5.6549   5.6914   5.7498   5.9766   6.0290   6.0792
     6.1431   6.2361   6.2775   6.4910   6.5453   6.6029   6.6566   6.8585
     6.9186   6.9493   7.0439   7.0473   7.2319   7.2917   7.4986   7.7061
     7.9365   7.9475   8.0734   8.0970   8.1199   8.2248   8.2652   8.3378
     8.3462   8.4054   8.5345   8.6404   8.6988   8.7053   8.8430   8.8970
     9.0793   9.2037   9.2419   9.3123   9.4691   9.4794   9.5767   9.6397
     9.7073   9.7914   9.9091  10.0457  10.0524  10.1299  10.4403  10.7582
    11.0162  11.2125  11.5488  11.8589  12.2299  13.4500  14.9216  15.2267
    18.0839  18.1941  18.2261  18.3050  18.3605  18.8347  18.8547  18.9985
    19.1811  19.2290  19.4416  19.4786  19.6994  19.8176  19.9724  20.0217
    20.1982  20.4512  20.4819  20.5052  20.5656  20.6007  20.6145  20.6531

     occupation numbers 
     1.0000   1.0000   1.0000   1.0000   1.0000   1.0000   1.0000   1.0000
     1.0000   1.0000   1.0000   1.0000   1.0000   1.0000   1.0000   1.0000
     1.0000   1.0000   1.0000   1.0000   1.0000   1.0000   1.0000   1.0000
     1.0000   1.0000   1.0000   1.0000   1.0000   1.0000   1.0000   1.0000
     1.0000   1.0000   1.0000   1.0000   1.0000   1.0000   1.0000   1.0000
     1.0000   1.0000   1.0000   1.0000   1.0000   1.0000   1.0000   1.0000
     1.0000   1.0000   1.0000   1.0000   1.0000   1.0000   1.0000   1.0000
     1.0000   1.0000   1.0000   1.0000   1.0000   1.0000   1.0000   1.0000
     1.0000   1.0000   1.0000   1.0000   1.0000   1.0000   1.0000   1.0000
     1.0000   1.0000   1.0000   1.0000   1.0000   1.0000   1.0000   1.0000
     1.0000   1.0000   1.0000   1.0000   1.0000   1.0000   1.0000   1.0000
     1.0000   1.0000   1.0000   1.0000   1.0000   1.0000   1.0000   1.0000
     1.0000   1.0000   1.0000   1.0000   1.0000   1.0000   1.0000   1.0000
     1.0000   1.0000   1.0000   1.0000   1.0000   1.0000   1.0000   1.0000
     1.0000   1.0000   1.0000   1.0000   1.0000   1.0000   1.0000   1.0000
     1.0000   1.0000   1.0000   1.0000   1.0000   1.0000   1.0000   0.0000
     0.0000   0.0000   0.0000   0.0000   0.0000   0.0000   0.0000   0.0000
     0.0000   0.0000   0.0000   0.0000   0.0000   0.0000   0.0000   0.0000
     0.0000   0.0000   0.0000   0.0000   0.0000   0.0000   0.0000   0.0000

          k = 0.3333 0.3333 0.3333 ( 24303 PWs)   bands (ev):

    -7.9223  -7.2121  -6.9771  -6.9771  -6.2926  -6.2192  -6.2192  -5.4520
    -4.1976  -4.0289  -4.0289  -3.5260  -3.3839  -3.3839  -3.3220  -3.3220
    -3.2961  -2.9019  -2.6686  -2.6686  -1.9453  -1.9052  -1.9052  -1.5361
    -1.4494  -1.4494  -1.4016  -1.4016  -1.3302  -1.2211  -1.2211   0.0716
     0.8447   0.8447   0.9803   0.9939   0.9939   1.3053   1.8395   1.8395
     1.8723   1.9092   2.0076   2.0076   2.5979   2.5979   2.6004   2.7047
     2.7333   2.7333   3.1464   3.1464   3.5389   4.0796   4.2931   4.2931
     4.8100   4.9280   4.9280   4.9618   5.0904   5.0904   5.1520   5.3089
     5.3089   5.3974   5.5105   5.5105   5.5798   5.5798   5.6295   6.3862
     6.7259   6.7259   6.9623   7.0002   7.0002   7.0059   7.0934   7.0934
     7.1975   7.1975   7.2512   7.2533   7.2658   7.2658   7.3666   7.3666
     7.3776   7.4972   7.7297   7.7297   7.9228   7.9228   7.9554   8.0022
     8.1867   8.1867   8.2901   8.3026   8.3026   8.4393   8.4520   8.4520
     8.6840   8.6840   8.8591   9.0732   9.1086   9.5399   9.5399   9.7896
     9.7896  10.4893  10.4893  10.5128  10.5833  10.9535  10.9535  11.2624
    11.2624  11.3027  11.4876  11.6679  11.6679  13.3621  15.2201  15.2201
    18.1577  18.2437  18.2437  18.4699  18.6421  18.6421  19.2486  19.3991
    19.3991  19.5458  19.5458  19.5745  19.6293  19.6293  19.6799  19.7425
    19.7425  19.8632  19.9214  19.9215  20.0066  20.0070  20.0260  20.1663

     occupation numbers 
     1.0000   1.0000   1.0000   1.0000   1.0000   1.0000   1.0000   1.0000
     1.0000   1.0000   1.0000   1.0000   1.0000   1.0000   1.0000   1.0000
     1.0000   1.0000   1.0000   1.0000   1.0000   1.0000   1.0000   1.0000
     1.0000   1.0000   1.0000   1.0000   1.0000   1.0000   1.0000   1.0000
     1.0000   1.0000   1.0000   1.0000   1.0000   1.0000   1.0000   1.0000
     1.0000   1.0000   1.0000   1.0000   1.0000   1.0000   1.0000   1.0000
     1.0000   1.0000   1.0000   1.0000   1.0000   1.0000   1.0000   1.0000
     1.0000   1.0000   1.0000   1.0000   1.0000   1.0000   1.0000   1.0000
     1.0000   1.0000   1.0000   1.0000   1.0000   1.0000   1.0000   1.0000
     1.0000   1.0000   1.0000   1.0000   1.0000   1.0000   1.0000   1.0000
     1.0000   1.0000   1.0000   1.0000   1.0000   1.0000   1.0000   1.0000
     1.0000   1.0000   1.0000   1.0000   1.0000   1.0000   1.0000   1.0000
     1.0000   1.0000   1.0000   1.0000   1.0000   1.0000   1.0000   1.0000
     1.0000   1.0000   1.0000   1.0000   1.0000   1.0000   1.0000   1.0000
     1.0000   1.0000   1.0000   1.0000   1.0000   1.0000   1.0000   1.0000
     1.0000   1.0000   1.0000   1.0000   1.0000   1.0000   0.0000   0.0000
     0.0000   0.0000   0.0000   0.0000   0.0000   0.0000   0.0000   0.0000
     0.0000   0.0000   0.0000   0.0000   0.0000   0.0000   0.0000   0.0000
     0.0000   0.0000   0.0000   0.0000   0.0000   0.0000   0.0000   0.0000

          k =-0.3333 0.0000 0.3333 ( 24236 PWs)   bands (ev):

    -8.1028  -7.5012  -7.1006  -6.5568  -5.9952  -5.6714  -5.3659  -5.0292
    -4.9284  -4.7633  -4.5134  -4.2936  -4.2254  -4.0420  -3.5861  -3.3303
    -2.7648  -2.4028  -2.3609  -2.2902  -2.1926  -2.1661  -2.0970  -1.6559
    -1.6374  -1.3102  -1.1134  -0.9851  -0.5895   0.0105   0.0775   0.1181
     0.2708   0.4938   0.8824   1.0568   1.2101   1.2261   1.2527   1.3984
     1.4829   1.5804   1.8646   1.9074   2.1368   2.5899   2.6821   2.8660
     2.9499   3.5066   3.6557   3.7124   3.7881   3.8920   4.0264   4.1151
     4.1775   4.3974   4.6236   4.8123   4.9688   5.0213   5.1859   5.2507
     5.4212   5.5675   5.6482   5.6890   5.7965   6.0365   6.0832   6.1343
     6.1784   6.2213   6.2709   6.4361   6.4770   6.6193   6.6418   6.8186
     6.8920   6.9660   7.0141   7.0967   7.2324   7.3905   7.5074   7.6797
     7.8511   7.8961   7.9684   8.0824   8.1785   8.2144   8.2588   8.2860
     8.3761   8.4362   8.5497   8.5928   8.7361   8.7506   8.8939   8.9586
     9.0782   9.1397   9.2323   9.3223   9.4521   9.4973   9.5183   9.6601
     9.7342   9.7511   9.9403  10.0290  10.0739  10.0951  10.5065  10.8816
    10.9807  11.1564  11.5068  11.7636  12.2385  13.7048  14.8360  15.1206
    18.0598  18.2032  18.2626  18.3133  18.3678  18.8015  18.9235  19.0976
    19.1529  19.2805  19.3549  19.4881  19.6981  19.8426  19.8927  20.0309
    20.2487  20.3659  20.4297  20.5216  20.5601  20.5971  20.6384  20.6796

     occupation numbers 
     1.0000   1.0000   1.0000   1.0000   1.0000   1.0000   1.0000   1.0000
     1.0000   1.0000   1.0000   1.0000   1.0000   1.0000   1.0000   1.0000
     1.0000   1.0000   1.0000   1.0000   1.0000   1.0000   1.0000   1.0000
     1.0000   1.0000   1.0000   1.0000   1.0000   1.0000   1.0000   1.0000
     1.0000   1.0000   1.0000   1.0000   1.0000   1.0000   1.0000   1.0000
     1.0000   1.0000   1.0000   1.0000   1.0000   1.0000   1.0000   1.0000
     1.0000   1.0000   1.0000   1.0000   1.0000   1.0000   1.0000   1.0000
     1.0000   1.0000   1.0000   1.0000   1.0000   1.0000   1.0000   1.0000
     1.0000   1.0000   1.0000   1.0000   1.0000   1.0000   1.0000   1.0000
     1.0000   1.0000   1.0000   1.0000   1.0000   1.0000   1.0000   1.0000
     1.0000   1.0000   1.0000   1.0000   1.0000   1.0000   1.0000   1.0000
     1.0000   1.0000   1.0000   1.0000   1.0000   1.0000   1.0000   1.0000
     1.0000   1.0000   1.0000   1.0000   1.0000   1.0000   1.0000   1.0000
     1.0000   1.0000   1.0000   1.0000   1.0000   1.0000   1.0000   1.0000
     1.0000   1.0000   1.0000   1.0000   1.0000   1.0000   1.0000   1.0000
     1.0000   1.0000   1.0000   1.0000   1.0000   1.0000   1.0000   0.5000
     0.0000   0.0000   0.0000   0.0000   0.0000   0.0000   0.0000   0.0000
     0.0000   0.0000   0.0000   0.0000   0.0000   0.0000   0.0000   0.0000
     0.0000   0.0000   0.0000   0.0000   0.0000   0.0000   0.0000   0.0000

          k = 0.3333-0.3333 0.3333 ( 24303 PWs)   bands (ev):

    -7.8958  -7.3531  -6.9775  -6.8240  -6.4652  -6.2181  -5.9825  -5.4895
    -4.4824  -4.0305  -3.9340  -3.7078  -3.4098  -3.3589  -3.3130  -3.2184
    -3.0746  -2.8849  -2.6879  -2.4248  -2.0619  -1.8851  -1.8512  -1.7159
    -1.4863  -1.4602  -1.4243  -1.3563  -1.3558  -1.2604  -1.1754  -0.0517
     0.7569   0.8772   0.9627   0.9983   1.0639   1.4214   1.7449   1.7816
     1.8590   1.9449   2.0440   2.2420   2.5799   2.6158   2.6873   2.7049
     2.7226   2.7805   2.9218   3.1783   3.5111   3.9964   4.2380   4.3118
     4.8262   4.8294   4.8572   5.0120   5.0270   5.0694   5.1970   5.2565
     5.2826   5.4383   5.4436   5.5035   5.6854   5.7754   5.8290   6.4638
     6.7038   6.7607   6.9237   6.9304   6.9705   7.0517   7.0725   7.0959
     7.1656   7.1869   7.2336   7.2648   7.2696   7.3204   7.3344   7.3549
     7.3784   7.4631   7.7382   7.7425   7.8281   7.9280   7.9524   7.9625
     8.1326   8.1575   8.2701   8.2877   8.3723   8.3923   8.4118   8.4893
     8.7022   8.7313   8.9677   8.9868   9.1201   9.5333   9.5918   9.6981
     9.8833  10.4061  10.5150  10.5219  10.5562  10.9332  10.9454  11.2061
    11.2274  11.2944  11.4553  11.7250  11.7370  13.7300  14.9044  15.2094
    18.1219  18.2594  18.3413  18.5430  18.6573  18.7259  19.2104  19.3957
    19.4348  19.5110  19.5347  19.5528  19.6089  19.6291  19.6623  19.7280
    19.7432  19.7943  19.9167  19.9244  19.9910  19.9973  20.0436  20.1543

     occupation numbers 
     1.0000   1.0000   1.0000   1.0000   1.0000   1.0000   1.0000   1.0000
     1.0000   1.0000   1.0000   1.0000   1.0000   1.0000   1.0000   1.0000
     1.0000   1.0000   1.0000   1.0000   1.0000   1.0000   1.0000   1.0000
     1.0000   1.0000   1.0000   1.0000   1.0000   1.0000   1.0000   1.0000
     1.0000   1.0000   1.0000   1.0000   1.0000   1.0000   1.0000   1.0000
     1.0000   1.0000   1.0000   1.0000   1.0000   1.0000   1.0000   1.0000
     1.0000   1.0000   1.0000   1.0000   1.0000   1.0000   1.0000   1.0000
     1.0000   1.0000   1.0000   1.0000   1.0000   1.0000   1.0000   1.0000
     1.0000   1.0000   1.0000   1.0000   1.0000   1.0000   1.0000   1.0000
     1.0000   1.0000   1.0000   1.0000   1.0000   1.0000   1.0000   1.0000
     1.0000   1.0000   1.0000   1.0000   1.0000   1.0000   1.0000   1.0000
     1.0000   1.0000   1.0000   1.0000   1.0000   1.0000   1.0000   1.0000
     1.0000   1.0000   1.0000   1.0000   1.0000   1.0000   1.0000   1.0000
     1.0000   1.0000   1.0000   1.0000   1.0000   1.0000   1.0000   1.0000
     1.0000   1.0000   1.0000   1.0000   1.0000   1.0000   1.0000   1.0000
     1.0000   1.0000   1.0000   1.0000   1.0000   1.0000   1.0000   0.0000
     0.0000   0.0000   0.0000   0.0000   0.0000   0.0000   0.0000   0.0000
     0.0000   0.0000   0.0000   0.0000   0.0000   0.0000   0.0000   0.0000
     0.0000   0.0000   0.0000   0.0000   0.0000   0.0000   0.0000   0.0000

     the spin up/dw Fermi energies are    15.1226   15.1225 ev

!    total energy              =    -724.77967031 Ry
     Harris-Foulkes estimate   =    -724.77966991 Ry
     estimated scf accuracy    <       0.00000047 Ry

     The total energy is the sum of the following terms:

     one-electron contribution =     232.86445618 Ry
     hartree contribution      =      69.13818423 Ry
     xc contribution           =    -226.34223675 Ry
     ewald contribution        =    -800.44000104 Ry
     smearing contrib. (-TS)   =      -0.00007293 Ry

     total magnetization       =    -0.00 Bohr mag/cell
     absolute magnetization    =     0.00 Bohr mag/cell

     convergence has been achieved in   9 iterations

     Writing output data file di.save
 
     init_run     :      1.33s CPU      1.71s WALL (       1 calls)
     electrons    :     25.51s CPU     25.91s WALL (       1 calls)

     Called by init_run:
     wfcinit      :      0.76s CPU      0.83s WALL (       1 calls)
     wfcinit:atom :      0.01s CPU      0.01s WALL (       2 calls)
     wfcinit:wfcr :      0.71s CPU      0.78s WALL (       2 calls)
     potinit      :      0.08s CPU      0.10s WALL (       1 calls)

     Called by electrons:
     c_bands      :     23.91s CPU     24.27s WALL (       9 calls)
     sum_band     :      1.08s CPU      1.10s WALL (       9 calls)
     v_of_rho     :      0.37s CPU      0.37s WALL (      10 calls)
     v_h          :      0.01s CPU      0.01s WALL (      10 calls)
     v_xc         :      0.36s CPU      0.36s WALL (      10 calls)
     mix_rho      :      0.06s CPU      0.06s WALL (       9 calls)

     Called by c_bands:
     init_us_2    :      0.18s CPU      0.18s WALL (      38 calls)
     cegterg      :     21.32s CPU     21.67s WALL (      18 calls)

     Called by sum_band:

     Called by *egterg:
     h_psi        :      8.39s CPU      8.51s WALL (     130 calls)
     g_psi        :      0.05s CPU      0.05s WALL (     110 calls)
     cdiaghg      :      9.27s CPU      9.32s WALL (     128 calls)
     cegterg:over :      1.63s CPU      1.64s WALL (     110 calls)
     cegterg:upda :      1.26s CPU      1.26s WALL (     110 calls)
     cegterg:last :      0.46s CPU      0.46s WALL (      18 calls)

     Called by h_psi:
     h_psi:pot    :      8.29s CPU      8.41s WALL (     130 calls)
     h_psi:calbec :      1.80s CPU      1.82s WALL (     130 calls)
     vloc_psi     :      4.61s CPU      4.69s WALL (     130 calls)
     add_vuspsi   :      1.88s CPU      1.90s WALL (     130 calls)

     General routines
     calbec       :      1.80s CPU      1.82s WALL (     130 calls)
     fft          :      0.11s CPU      0.32s WALL (     207 calls)
     fftw         :      4.90s CPU      4.92s WALL (   18362 calls)
 
     Parallel routines
     fft_scatter  :      1.50s CPU      1.47s WALL (   18569 calls)
 
     PWSCF        :    29.66s CPU        32.99s WALL

 
   This run was terminated on:  10:25:49  12May2020            

=------------------------------------------------------------------------------=
   JOB DONE.
=------------------------------------------------------------------------------=
