
     Program PWSCF v.6.1 (svn rev. 13369) starts on  1Jun2021 at 13:18:25 

     This program is part of the open-source Quantum ESPRESSO suite
     for quantum simulation of materials; please cite
         "P. Giannozzi et al., J. Phys.:Condens. Matter 21 395502 (2009);
          URL http://www.quantum-espresso.org", 
     in publications or presentations arising from this work. More details at
     http://www.quantum-espresso.org/quote

     Parallel version (MPI), running on    32 processors
     K-points division:     npool     =       2
     R & G space division:  proc/nbgrp/npool/nimage =      16
     Reading input from scf.in
Warning: card &IONS ignored
Warning: card / ignored

     Current dimensions of program PWSCF are:
     Max number of different atomic species (ntypx) = 10
     Max number of k-points (npk) =  40000
     Max angular momentum in pseudopotentials (lmaxx) =  3

     Subspace diagonalization in iterative solution of the eigenvalue problem:
     one sub-group per band group will be used
     scalapack distributed-memory algorithm (size of sub-group:  4*  4 procs)

 
     Parallelization info
     --------------------
     sticks:   dense  smooth     PW     G-vecs:    dense   smooth      PW
     Min         252     252     62                12125    12125    1510
     Max         254     254     63                12129    12129    1515
     Sum        4049    4049   1005               194039   194039   24207
 


     bravais-lattice index     =            1
     lattice parameter (alat)  =      13.4862  a.u.
     unit-cell volume          =    2452.8358 (a.u.)^3
     number of atoms/cell      =           63
     number of atomic types    =            2
     number of electrons       =       254.00 (up: 127.00, down: 127.00)
     number of Kohn-Sham states=          152
     kinetic-energy cutoff     =      70.0000  Ry
     charge density cutoff     =     280.0000  Ry
     convergence threshold     =      1.0E-06
     mixing beta               =       0.5000
     number of iterations used =            8  plain     mixing
     Exchange-correlation      = PBE ( 1  4  3  4 0 0)

     celldm(1)=  13.486197  celldm(2)=   0.000000  celldm(3)=   0.000000
     celldm(4)=   0.000000  celldm(5)=   0.000000  celldm(6)=   0.000000

     crystal axes: (cart. coord. in units of alat)
               a(1) = (   1.000000   0.000000   0.000000 )  
               a(2) = (   0.000000   1.000000   0.000000 )  
               a(3) = (   0.000000   0.000000   1.000000 )  

     reciprocal axes: (cart. coord. in units 2 pi/alat)
               b(1) = (  1.000000  0.000000  0.000000 )  
               b(2) = (  0.000000  1.000000  0.000000 )  
               b(3) = (  0.000000  0.000000  1.000000 )  


     PseudoPot. # 1 for C  read from file:
     /export/data/share/tjsmart/Pseudo/C_ONCV_PBE-1.0.upf
     MD5 check sum: 72b63e32b2fd29504de26a4901699f60
     Pseudo is Norm-conserving, Zval =  4.0
     Generated using ONCVPSP code by D. R. Hamann
     Using radial grid of 1248 points,  4 beta functions with: 
                l(1) =   0
                l(2) =   0
                l(3) =   1
                l(4) =   1

     PseudoPot. # 2 for N  read from file:
     /export/data/share/tjsmart/Pseudo/N_ONCV_PBE-1.0.upf
     MD5 check sum: 09890da6b2972017450f7114a6086fad
     Pseudo is Norm-conserving, Zval =  5.0
     Generated using ONCVPSP code by D. R. Hamann
     Using radial grid of 1058 points,  4 beta functions with: 
                l(1) =   0
                l(2) =   0
                l(3) =   1
                l(4) =   1

     atomic species   valence    mass     pseudopotential
        C              4.00    12.01110     C ( 1.00)
        N              5.00    14.00670     N ( 1.00)

     Starting magnetic structure 
     atomic species   magnetization
        C            0.200
        N            0.200

      6 Sym. Ops. (no inversion) found


                                    s                        frac. trans.

      isym =  1     identity                                     

 cryst.   s( 1) = (     1          0          0      )
                  (     0          1          0      )
                  (     0          0          1      )

 cart.    s( 1) = (  1.0000000  0.0000000  0.0000000 )
                  (  0.0000000  1.0000000  0.0000000 )
                  (  0.0000000  0.0000000  1.0000000 )


      isym =  2     120 deg rotation - cart. axis [-1,-1,-1]     

 cryst.   s( 2) = (     0          0          1      )
                  (     1          0          0      )
                  (     0          1          0      )

 cart.    s( 2) = (  0.0000000  1.0000000  0.0000000 )
                  (  0.0000000  0.0000000  1.0000000 )
                  (  1.0000000  0.0000000  0.0000000 )


      isym =  3     120 deg rotation - cart. axis [1,1,1]        

 cryst.   s( 3) = (     0          1          0      )
                  (     0          0          1      )
                  (     1          0          0      )

 cart.    s( 3) = (  0.0000000  0.0000000  1.0000000 )
                  (  1.0000000  0.0000000  0.0000000 )
                  (  0.0000000  1.0000000  0.0000000 )


      isym =  4     inv. 180 deg rotation - cart. axis [1,-1,0]  

 cryst.   s( 4) = (     0          1          0      )
                  (     1          0          0      )
                  (     0          0          1      )

 cart.    s( 4) = (  0.0000000  1.0000000  0.0000000 )
                  (  1.0000000  0.0000000  0.0000000 )
                  (  0.0000000  0.0000000  1.0000000 )


      isym =  5     inv. 180 deg rotation - cart. axis [-1,0,1]  

 cryst.   s( 5) = (     0          0          1      )
                  (     0          1          0      )
                  (     1          0          0      )

 cart.    s( 5) = (  0.0000000  0.0000000  1.0000000 )
                  (  0.0000000  1.0000000  0.0000000 )
                  (  1.0000000  0.0000000  0.0000000 )


      isym =  6     inv. 180 deg rotation - cart. axis [0,1,-1]  

 cryst.   s( 6) = (     1          0          0      )
                  (     0          0          1      )
                  (     0          1          0      )

 cart.    s( 6) = (  1.0000000  0.0000000  0.0000000 )
                  (  0.0000000  0.0000000  1.0000000 )
                  (  0.0000000  1.0000000  0.0000000 )


     point group C_3v (3m)  
     there are  3 classes
     the character table:

       E     2C3   3s_v 
A_1    1.00  1.00  1.00
A_2    1.00  1.00 -1.00
E      2.00 -1.00  0.00

     the symmetry operations in each class and the name of the first element:

     E        1
          identity                                               
     2C3      2    3
          120 deg rotation - cart. axis [-1,-1,-1]               
     3s_v     4    5    6
          inv. 180 deg rotation - cart. axis [1,-1,0]            

   Cartesian axes

     site n.     atom                  positions (alat units)
         1           C   tau(   1) = (   0.3757553   0.3757553   0.8736395  )
         2           C   tau(   2) = (   0.5001453   0.0002970   0.0002970  )
         3           C   tau(   3) = (   0.5000223  -0.0002305   0.5000223  )
         4           C   tau(   4) = (   0.0002970   0.5001453   0.0002970  )
         5           C   tau(   5) = (  -0.0002305   0.5000223   0.5000223  )
         6           C   tau(   6) = (  -0.0001163  -0.0001163  -0.0001163  )
         7           C   tau(   7) = (   0.0002970   0.0002970   0.5001453  )
         8           C   tau(   8) = (   0.2503244   0.2503244  -0.0010848  )
         9           C   tau(   9) = (   0.2509669   0.2509669   0.4954651  )
        10           C   tau(  10) = (   0.2502948   0.7490746   0.0009335  )
        11           C   tau(  11) = (   0.2519649   0.7481396   0.5018437  )
        12           C   tau(  12) = (   0.7490746   0.2502948   0.0009335  )
        13           C   tau(  13) = (   0.7481396   0.2519649   0.5018437  )
        14           C   tau(  14) = (   0.7495886   0.7495886  -0.0004886  )
        15           C   tau(  15) = (   0.5000223   0.5000223  -0.0002305  )
        16           C   tau(  16) = (   0.7488819   0.7488819   0.4985771  )
        17           C   tau(  17) = (   0.5018437   0.2519649   0.7481396  )
        18           C   tau(  18) = (   0.5018437   0.7481396   0.2519649  )
        19           C   tau(  19) = (   0.4985771   0.7488819   0.7488819  )
        20           C   tau(  20) = (  -0.0010848   0.2503244   0.2503244  )
        21           C   tau(  21) = (   0.0009335   0.2502948   0.7490746  )
        22           C   tau(  22) = (   0.0009335   0.7490746   0.2502948  )
        23           C   tau(  23) = (  -0.0004886   0.7495886   0.7495886  )
        24           C   tau(  24) = (   0.2509669   0.4954651   0.2509669  )
        25           C   tau(  25) = (   0.2519649   0.5018437   0.7481396  )
        26           C   tau(  26) = (   0.2503244  -0.0010848   0.2503244  )
        27           C   tau(  27) = (   0.2502948   0.0009335   0.7490746  )
        28           C   tau(  28) = (   0.7481396   0.5018437   0.2519649  )
        29           C   tau(  29) = (   0.7488819   0.4985771   0.7488819  )
        30           C   tau(  30) = (   0.4954651   0.2509669   0.2509669  )
        31           C   tau(  31) = (   0.7490746   0.0009335   0.2502948  )
        32           C   tau(  32) = (   0.6244835   0.8740965   0.6244835  )
        33           C   tau(  33) = (   0.6353798   0.3652385   0.6353798  )
        34           C   tau(  34) = (   0.3758036   0.8762106   0.8762106  )
        35           C   tau(  35) = (   0.3757553   0.8736395   0.3757553  )
        36           C   tau(  36) = (   0.8762106   0.3758036   0.8762106  )
        37           C   tau(  37) = (   0.8736395   0.3757553   0.3757553  )
        38           C   tau(  38) = (   0.8746125   0.8746125   0.8746125  )
        39           C   tau(  39) = (   0.8762106   0.8762106   0.3758036  )
        40           C   tau(  40) = (   0.1253777   0.1253777   0.8743244  )
        41           C   tau(  41) = (   0.1241632   0.1241632   0.3748692  )
        42           C   tau(  42) = (   0.1240294   0.6244528   0.8759780  )
        43           C   tau(  43) = (   0.1268711   0.6231640   0.3763427  )
        44           C   tau(  44) = (   0.6244528   0.1240294   0.8759780  )
        45           C   tau(  45) = (   0.6231640   0.1268711   0.3763427  )
        46           C   tau(  46) = (   0.6244528   0.8759780   0.1240294  )
        47           C   tau(  47) = (   0.6244835   0.6244835   0.8740965  )
        48           C   tau(  48) = (   0.3748692   0.1241632   0.1241632  )
        49           C   tau(  49) = (   0.3763427   0.1268711   0.6231640  )
        50           C   tau(  50) = (   0.3763427   0.6231640   0.1268711  )
        51           C   tau(  51) = (   0.3652385   0.6353798   0.6353798  )
        52           C   tau(  52) = (   0.8743244   0.1253777   0.1253777  )
        53           C   tau(  53) = (   0.8759780   0.1240294   0.6244528  )
        54           C   tau(  54) = (   0.8759780   0.6244528   0.1240294  )
        55           C   tau(  55) = (   0.8740965   0.6244835   0.6244835  )
        56           C   tau(  56) = (   0.1241632   0.3748692   0.1241632  )
        57           C   tau(  57) = (   0.1268711   0.3763427   0.6231640  )
        58           C   tau(  58) = (   0.1253777   0.8743244   0.1253777  )
        59           C   tau(  59) = (   0.1240294   0.8759780   0.6244528  )
        60           C   tau(  60) = (   0.6231640   0.3763427   0.1268711  )
        61           C   tau(  61) = (   0.6353798   0.6353798   0.3652385  )
        62           C   tau(  62) = (   0.7495886  -0.0004886   0.7495886  )
        63           N   tau(  63) = (   0.3660676   0.3660676   0.3660676  )

   Crystallographic axes

     site n.     atom                  positions (cryst. coord.)
         1           C   tau(   1) = (  0.3757553  0.3757553  0.8736395  )
         2           C   tau(   2) = (  0.5001453  0.0002970  0.0002970  )
         3           C   tau(   3) = (  0.5000223 -0.0002305  0.5000223  )
         4           C   tau(   4) = (  0.0002970  0.5001453  0.0002970  )
         5           C   tau(   5) = ( -0.0002305  0.5000223  0.5000223  )
         6           C   tau(   6) = ( -0.0001163 -0.0001163 -0.0001163  )
         7           C   tau(   7) = (  0.0002970  0.0002970  0.5001453  )
         8           C   tau(   8) = (  0.2503244  0.2503244 -0.0010848  )
         9           C   tau(   9) = (  0.2509669  0.2509669  0.4954651  )
        10           C   tau(  10) = (  0.2502948  0.7490746  0.0009335  )
        11           C   tau(  11) = (  0.2519649  0.7481396  0.5018437  )
        12           C   tau(  12) = (  0.7490746  0.2502948  0.0009335  )
        13           C   tau(  13) = (  0.7481396  0.2519649  0.5018437  )
        14           C   tau(  14) = (  0.7495886  0.7495886 -0.0004886  )
        15           C   tau(  15) = (  0.5000223  0.5000223 -0.0002305  )
        16           C   tau(  16) = (  0.7488819  0.7488819  0.4985771  )
        17           C   tau(  17) = (  0.5018437  0.2519649  0.7481396  )
        18           C   tau(  18) = (  0.5018437  0.7481396  0.2519649  )
        19           C   tau(  19) = (  0.4985771  0.7488819  0.7488819  )
        20           C   tau(  20) = ( -0.0010848  0.2503244  0.2503244  )
        21           C   tau(  21) = (  0.0009335  0.2502948  0.7490746  )
        22           C   tau(  22) = (  0.0009335  0.7490746  0.2502948  )
        23           C   tau(  23) = ( -0.0004886  0.7495886  0.7495886  )
        24           C   tau(  24) = (  0.2509669  0.4954651  0.2509669  )
        25           C   tau(  25) = (  0.2519649  0.5018437  0.7481396  )
        26           C   tau(  26) = (  0.2503244 -0.0010848  0.2503244  )
        27           C   tau(  27) = (  0.2502948  0.0009335  0.7490746  )
        28           C   tau(  28) = (  0.7481396  0.5018437  0.2519649  )
        29           C   tau(  29) = (  0.7488819  0.4985771  0.7488819  )
        30           C   tau(  30) = (  0.4954651  0.2509669  0.2509669  )
        31           C   tau(  31) = (  0.7490746  0.0009335  0.2502948  )
        32           C   tau(  32) = (  0.6244835  0.8740965  0.6244835  )
        33           C   tau(  33) = (  0.6353798  0.3652385  0.6353798  )
        34           C   tau(  34) = (  0.3758036  0.8762106  0.8762106  )
        35           C   tau(  35) = (  0.3757553  0.8736395  0.3757553  )
        36           C   tau(  36) = (  0.8762106  0.3758036  0.8762106  )
        37           C   tau(  37) = (  0.8736395  0.3757553  0.3757553  )
        38           C   tau(  38) = (  0.8746125  0.8746125  0.8746125  )
        39           C   tau(  39) = (  0.8762106  0.8762106  0.3758036  )
        40           C   tau(  40) = (  0.1253777  0.1253777  0.8743244  )
        41           C   tau(  41) = (  0.1241632  0.1241632  0.3748692  )
        42           C   tau(  42) = (  0.1240294  0.6244528  0.8759780  )
        43           C   tau(  43) = (  0.1268711  0.6231640  0.3763427  )
        44           C   tau(  44) = (  0.6244528  0.1240294  0.8759780  )
        45           C   tau(  45) = (  0.6231640  0.1268711  0.3763427  )
        46           C   tau(  46) = (  0.6244528  0.8759780  0.1240294  )
        47           C   tau(  47) = (  0.6244835  0.6244835  0.8740965  )
        48           C   tau(  48) = (  0.3748692  0.1241632  0.1241632  )
        49           C   tau(  49) = (  0.3763427  0.1268711  0.6231640  )
        50           C   tau(  50) = (  0.3763427  0.6231640  0.1268711  )
        51           C   tau(  51) = (  0.3652385  0.6353798  0.6353798  )
        52           C   tau(  52) = (  0.8743244  0.1253777  0.1253777  )
        53           C   tau(  53) = (  0.8759780  0.1240294  0.6244528  )
        54           C   tau(  54) = (  0.8759780  0.6244528  0.1240294  )
        55           C   tau(  55) = (  0.8740965  0.6244835  0.6244835  )
        56           C   tau(  56) = (  0.1241632  0.3748692  0.1241632  )
        57           C   tau(  57) = (  0.1268711  0.3763427  0.6231640  )
        58           C   tau(  58) = (  0.1253777  0.8743244  0.1253777  )
        59           C   tau(  59) = (  0.1240294  0.8759780  0.6244528  )
        60           C   tau(  60) = (  0.6231640  0.3763427  0.1268711  )
        61           C   tau(  61) = (  0.6353798  0.6353798  0.3652385  )
        62           C   tau(  62) = (  0.7495886 -0.0004886  0.7495886  )
        63           N   tau(  63) = (  0.3660676  0.3660676  0.3660676  )

     number of k points=     1  Marzari-Vanderbilt smearing, width (Ry)=  0.0010
                       cart. coord. in units 2pi/alat
        k(    1) = (   0.0000000   0.0000000   0.0000000), wk =   1.0000000

                       cryst. coord.
        k(    1) = (   0.0000000   0.0000000   0.0000000), wk =   1.0000000

     Dense  grid:   194039 G-vectors     FFT dimensions: (  72,  72,  72)

     Estimated max dynamical RAM per process >      42.63MB

     Estimated total allocated dynamical RAM >    1364.05MB
     Generating pointlists ...
     new r_m :   0.0858 (alat units)  1.1568 (a.u.) for type    1
     new r_m :   0.0858 (alat units)  1.1568 (a.u.) for type    2

     Initial potential from superposition of free atoms

     starting charge  252.99722, renormalised to  254.00000
     Starting wfc are  252 randomized atomic wfcs

     total cpu time spent up to now is        5.0 secs

     per-process dynamical memory:    49.0 Mb

     Self-consistent Calculation

     iteration #  1     ecut=    70.00 Ry     beta=0.50
     Davidson diagonalization with overlap
     ethr =  1.00E-02,  avg # of iterations =  3.0

     total cpu time spent up to now is        6.1 secs

     total energy              =    -723.96487161 Ry
     Harris-Foulkes estimate   =    -724.47449270 Ry
     estimated scf accuracy    <       4.38813628 Ry

     total magnetization       =    -0.00 Bohr mag/cell
     absolute magnetization    =     0.88 Bohr mag/cell

     iteration #  2     ecut=    70.00 Ry     beta=0.50
     Davidson diagonalization with overlap
     ethr =  1.73E-03,  avg # of iterations =  2.0

     total cpu time spent up to now is        6.8 secs

     total energy              =    -724.27804044 Ry
     Harris-Foulkes estimate   =    -724.21487927 Ry
     estimated scf accuracy    <       0.70776925 Ry

     total magnetization       =     0.00 Bohr mag/cell
     absolute magnetization    =     0.33 Bohr mag/cell

     iteration #  3     ecut=    70.00 Ry     beta=0.50
     Davidson diagonalization with overlap
     ethr =  2.79E-04,  avg # of iterations =  4.5

     total cpu time spent up to now is        7.8 secs

     total energy              =    -724.34687546 Ry
     Harris-Foulkes estimate   =    -724.40034649 Ry
     estimated scf accuracy    <       0.18613098 Ry

     total magnetization       =     0.00 Bohr mag/cell
     absolute magnetization    =     0.12 Bohr mag/cell

     iteration #  4     ecut=    70.00 Ry     beta=0.50
     Davidson diagonalization with overlap
     ethr =  7.33E-05,  avg # of iterations = 11.5

     total cpu time spent up to now is        9.5 secs

     total energy              =    -724.39154281 Ry
     Harris-Foulkes estimate   =    -724.38833708 Ry
     estimated scf accuracy    <       0.01195120 Ry

     total magnetization       =    -0.00 Bohr mag/cell
     absolute magnetization    =     0.07 Bohr mag/cell

     iteration #  5     ecut=    70.00 Ry     beta=0.50
     Davidson diagonalization with overlap
     ethr =  4.71E-06,  avg # of iterations = 15.5

     total cpu time spent up to now is       11.7 secs

     total energy              =    -724.39456250 Ry
     Harris-Foulkes estimate   =    -724.39442012 Ry
     estimated scf accuracy    <       0.00152110 Ry

     total magnetization       =     0.00 Bohr mag/cell
     absolute magnetization    =     0.04 Bohr mag/cell

     iteration #  6     ecut=    70.00 Ry     beta=0.50
     Davidson diagonalization with overlap
     ethr =  5.99E-07,  avg # of iterations = 11.5

     total cpu time spent up to now is       13.3 secs

     total energy              =    -724.39484467 Ry
     Harris-Foulkes estimate   =    -724.39486331 Ry
     estimated scf accuracy    <       0.00018982 Ry

     total magnetization       =    -0.00 Bohr mag/cell
     absolute magnetization    =     0.02 Bohr mag/cell

     iteration #  7     ecut=    70.00 Ry     beta=0.50
     Davidson diagonalization with overlap
     ethr =  7.47E-08,  avg # of iterations =  3.0

     total cpu time spent up to now is       14.3 secs

     total energy              =    -724.39489790 Ry
     Harris-Foulkes estimate   =    -724.39490471 Ry
     estimated scf accuracy    <       0.00003074 Ry

     total magnetization       =     0.00 Bohr mag/cell
     absolute magnetization    =     0.01 Bohr mag/cell

     iteration #  8     ecut=    70.00 Ry     beta=0.50
     Davidson diagonalization with overlap
     ethr =  1.21E-08,  avg # of iterations =  3.0

     total cpu time spent up to now is       15.2 secs

     total energy              =    -724.39490520 Ry
     Harris-Foulkes estimate   =    -724.39490479 Ry
     estimated scf accuracy    <       0.00000226 Ry

     total magnetization       =     0.00 Bohr mag/cell
     absolute magnetization    =     0.01 Bohr mag/cell

     iteration #  9     ecut=    70.00 Ry     beta=0.50
     Davidson diagonalization with overlap
     ethr =  8.91E-10,  avg # of iterations =  3.0
 
     Magnetic moment per site:
     atom:    1    charge:    1.8445    magn:   -0.0000    constr:    0.0000
     atom:    2    charge:    1.8631    magn:   -0.0000    constr:    0.0000
     atom:    3    charge:    1.8521    magn:    0.0000    constr:    0.0000
     atom:    4    charge:    1.8631    magn:   -0.0000    constr:    0.0000
     atom:    5    charge:    1.8521    magn:    0.0000    constr:    0.0000
     atom:    6    charge:    1.8417    magn:    0.0000    constr:    0.0000
     atom:    7    charge:    1.8631    magn:   -0.0000    constr:    0.0000
     atom:    8    charge:    1.8447    magn:    0.0000    constr:    0.0000
     atom:    9    charge:    1.8200    magn:   -0.0002    constr:    0.0000
     atom:   10    charge:    1.8391    magn:    0.0000    constr:    0.0000
     atom:   11    charge:    1.8510    magn:    0.0000    constr:    0.0000
     atom:   12    charge:    1.8391    magn:    0.0000    constr:    0.0000
     atom:   13    charge:    1.8510    magn:    0.0000    constr:    0.0000
     atom:   14    charge:    1.8444    magn:    0.0000    constr:    0.0000
     atom:   15    charge:    1.8521    magn:    0.0000    constr:    0.0000
     atom:   16    charge:    1.8517    magn:    0.0000    constr:    0.0000
     atom:   17    charge:    1.8510    magn:    0.0000    constr:    0.0000
     atom:   18    charge:    1.8510    magn:    0.0000    constr:    0.0000
     atom:   19    charge:    1.8517    magn:    0.0000    constr:    0.0000
     atom:   20    charge:    1.8447    magn:    0.0000    constr:    0.0000
     atom:   21    charge:    1.8391    magn:    0.0000    constr:    0.0000
     atom:   22    charge:    1.8391    magn:    0.0000    constr:    0.0000
     atom:   23    charge:    1.8444    magn:    0.0000    constr:    0.0000
     atom:   24    charge:    1.8200    magn:   -0.0002    constr:    0.0000
     atom:   25    charge:    1.8510    magn:    0.0000    constr:    0.0000
     atom:   26    charge:    1.8447    magn:    0.0000    constr:    0.0000
     atom:   27    charge:    1.8391    magn:    0.0000    constr:    0.0000
     atom:   28    charge:    1.8510    magn:    0.0000    constr:    0.0000
     atom:   29    charge:    1.8517    magn:    0.0000    constr:    0.0000
     atom:   30    charge:    1.8200    magn:   -0.0002    constr:    0.0000
     atom:   31    charge:    1.8391    magn:    0.0000    constr:    0.0000
     atom:   32    charge:    1.8445    magn:    0.0000    constr:    0.0000
     atom:   33    charge:    1.8603    magn:   -0.0000    constr:    0.0000
     atom:   34    charge:    1.8419    magn:    0.0000    constr:    0.0000
     atom:   35    charge:    1.8445    magn:   -0.0000    constr:    0.0000
     atom:   36    charge:    1.8419    magn:    0.0000    constr:    0.0000
     atom:   37    charge:    1.8445    magn:   -0.0000    constr:    0.0000
     atom:   38    charge:    1.8477    magn:   -0.0000    constr:    0.0000
     atom:   39    charge:    1.8419    magn:    0.0000    constr:    0.0000
     atom:   40    charge:    1.8479    magn:    0.0000    constr:    0.0000
     atom:   41    charge:    1.8535    magn:    0.0000    constr:    0.0000
     atom:   42    charge:    1.8448    magn:    0.0000    constr:    0.0000
     atom:   43    charge:    1.8416    magn:    0.0000    constr:    0.0000
     atom:   44    charge:    1.8448    magn:    0.0000    constr:    0.0000
     atom:   45    charge:    1.8416    magn:    0.0000    constr:    0.0000
     atom:   46    charge:    1.8448    magn:    0.0000    constr:    0.0000
     atom:   47    charge:    1.8445    magn:    0.0000    constr:    0.0000
     atom:   48    charge:    1.8535    magn:    0.0000    constr:    0.0000
     atom:   49    charge:    1.8416    magn:    0.0000    constr:    0.0000
     atom:   50    charge:    1.8416    magn:    0.0000    constr:    0.0000
     atom:   51    charge:    1.8603    magn:   -0.0000    constr:    0.0000
     atom:   52    charge:    1.8479    magn:    0.0000    constr:    0.0000
     atom:   53    charge:    1.8448    magn:    0.0000    constr:    0.0000
     atom:   54    charge:    1.8448    magn:    0.0000    constr:    0.0000
     atom:   55    charge:    1.8445    magn:    0.0000    constr:    0.0000
     atom:   56    charge:    1.8535    magn:    0.0000    constr:    0.0000
     atom:   57    charge:    1.8416    magn:    0.0000    constr:    0.0000
     atom:   58    charge:    1.8479    magn:    0.0000    constr:    0.0000
     atom:   59    charge:    1.8448    magn:    0.0000    constr:    0.0000
     atom:   60    charge:    1.8416    magn:    0.0000    constr:    0.0000
     atom:   61    charge:    1.8603    magn:   -0.0000    constr:    0.0000
     atom:   62    charge:    1.8444    magn:    0.0000    constr:    0.0000
     atom:   63    charge:    2.9340    magn:    0.0007    constr:    0.0000

     total cpu time spent up to now is       16.2 secs

     End of self-consistent calculation

 ------ SPIN UP ------------


          k = 0.0000 0.0000 0.0000 ( 24207 PWs)   bands (ev):

    -8.5339  -6.9081  -6.2581  -6.2581  -6.1455  -6.1455  -5.8611  -4.8977
    -4.1136  -4.1136  -4.0848  -4.0848  -3.9999  -3.9999  -3.9907  -3.9206
    -3.8514  -3.8514  -3.3466  -2.9366  -2.6477  -2.6477  -2.0517  -0.3529
    -0.3529  -0.3276  -0.2970  -0.0731   0.1914   0.1914   0.2947   0.2947
     0.3672   0.6162   0.8392   0.8392   0.9933   0.9933   1.0055   1.0436
     1.0436   1.0545   1.3668   1.3668   3.0873   3.9408   3.9408   4.0584
     4.2237   4.2280   4.2280   4.2541   4.2684   4.2684   4.4312   4.4312
     4.4857   4.4857   4.5824   4.6605   4.6605   4.6605   4.6636   4.7629
     4.7629   4.8894   4.9503   4.9503   5.0648   5.2201   5.2201   5.2890
     5.3440   5.3440   5.3823   5.4168   5.4168   6.0305   6.0305   6.0657
     6.6294   6.6294   6.7232   7.0070   7.0345   7.0345   7.5517   8.3355
     8.3355   8.4000   8.4650   8.4650   8.6511   8.6511   8.7907   8.8104
     8.8104   8.8216   8.8724   8.8724   8.8901   9.2666   9.2714   9.2714
     9.6898   9.6898   9.8867   9.9009   9.9079   9.9079   9.9222   9.9577
     9.9577   9.9735   9.9967   9.9967  10.0939  10.0939  10.2792  10.2792
    10.3044  11.1028  12.3228  12.4706  12.4706  13.9993  15.3325  15.3325
    17.3180  17.3533  17.3533  17.4988  17.5410  17.5410  17.8313  17.9021
    17.9021  18.0003  18.0003  18.3690  18.9317  18.9317  18.9641  20.6442
    20.7821  20.7821  20.8277  20.9038  20.9038  20.9883  20.9884  21.0039

     occupation numbers 
     1.0000   1.0000   1.0000   1.0000   1.0000   1.0000   1.0000   1.0000
     1.0000   1.0000   1.0000   1.0000   1.0000   1.0000   1.0000   1.0000
     1.0000   1.0000   1.0000   1.0000   1.0000   1.0000   1.0000   1.0000
     1.0000   1.0000   1.0000   1.0000   1.0000   1.0000   1.0000   1.0000
     1.0000   1.0000   1.0000   1.0000   1.0000   1.0000   1.0000   1.0000
     1.0000   1.0000   1.0000   1.0000   1.0000   1.0000   1.0000   1.0000
     1.0000   1.0000   1.0000   1.0000   1.0000   1.0000   1.0000   1.0000
     1.0000   1.0000   1.0000   1.0000   1.0000   1.0000   1.0000   1.0000
     1.0000   1.0000   1.0000   1.0000   1.0000   1.0000   1.0000   1.0000
     1.0000   1.0000   1.0000   1.0000   1.0000   1.0000   1.0000   1.0000
     1.0000   1.0000   1.0000   1.0000   1.0000   1.0000   1.0000   1.0000
     1.0000   1.0000   1.0000   1.0000   1.0000   1.0000   1.0000   1.0000
     1.0000   1.0000   1.0000   1.0000   1.0000   1.0000   1.0000   1.0000
     1.0000   1.0000   1.0000   1.0000   1.0000   1.0000   1.0000   1.0000
     1.0000   1.0000   1.0000   1.0000   1.0000   1.0000   1.0000   1.0000
     1.0000   1.0000   1.0000   1.0000   1.0000   1.0000   0.5000   0.5000
     0.0000   0.0000   0.0000   0.0000   0.0000   0.0000   0.0000   0.0000
     0.0000   0.0000   0.0000   0.0000   0.0000   0.0000   0.0000   0.0000
     0.0000   0.0000   0.0000   0.0000   0.0000   0.0000   0.0000   0.0000

 ------ SPIN DOWN ----------


          k = 0.0000 0.0000 0.0000 ( 24207 PWs)   bands (ev):

    -8.5339  -6.9076  -6.2582  -6.2582  -6.1456  -6.1456  -5.8612  -4.8973
    -4.1138  -4.1138  -4.0850  -4.0850  -4.0000  -4.0000  -3.9908  -3.9207
    -3.8515  -3.8515  -3.3467  -2.9365  -2.6478  -2.6478  -2.0517  -0.3530
    -0.3530  -0.3277  -0.2971  -0.0729   0.1913   0.1913   0.2946   0.2946
     0.3671   0.6163   0.8390   0.8390   0.9933   0.9933   1.0055   1.0436
     1.0436   1.0545   1.3668   1.3668   3.0872   3.9409   3.9409   4.0584
     4.2236   4.2280   4.2280   4.2541   4.2684   4.2684   4.4311   4.4311
     4.4856   4.4856   4.5824   4.6604   4.6604   4.6605   4.6635   4.7629
     4.7629   4.8894   4.9502   4.9502   5.0647   5.2201   5.2201   5.2889
     5.3439   5.3439   5.3822   5.4168   5.4168   6.0305   6.0305   6.0657
     6.6294   6.6294   6.7231   7.0070   7.0345   7.0345   7.5516   8.3357
     8.3357   8.4000   8.4650   8.4650   8.6511   8.6511   8.7906   8.8104
     8.8104   8.8216   8.8724   8.8724   8.8901   9.2666   9.2714   9.2714
     9.6899   9.6899   9.8867   9.9009   9.9078   9.9078   9.9222   9.9577
     9.9577   9.9736   9.9967   9.9967  10.0939  10.0939  10.2792  10.2792
    10.3045  11.1032  12.3227  12.4706  12.4706  14.0000  15.3320  15.3320
    17.3180  17.3533  17.3533  17.4988  17.5410  17.5410  17.8314  17.9021
    17.9021  18.0003  18.0003  18.3688  18.9318  18.9318  18.9642  20.6445
    20.7821  20.7821  20.8277  20.9038  20.9039  20.9885  20.9887  21.0038

     occupation numbers 
     1.0000   1.0000   1.0000   1.0000   1.0000   1.0000   1.0000   1.0000
     1.0000   1.0000   1.0000   1.0000   1.0000   1.0000   1.0000   1.0000
     1.0000   1.0000   1.0000   1.0000   1.0000   1.0000   1.0000   1.0000
     1.0000   1.0000   1.0000   1.0000   1.0000   1.0000   1.0000   1.0000
     1.0000   1.0000   1.0000   1.0000   1.0000   1.0000   1.0000   1.0000
     1.0000   1.0000   1.0000   1.0000   1.0000   1.0000   1.0000   1.0000
     1.0000   1.0000   1.0000   1.0000   1.0000   1.0000   1.0000   1.0000
     1.0000   1.0000   1.0000   1.0000   1.0000   1.0000   1.0000   1.0000
     1.0000   1.0000   1.0000   1.0000   1.0000   1.0000   1.0000   1.0000
     1.0000   1.0000   1.0000   1.0000   1.0000   1.0000   1.0000   1.0000
     1.0000   1.0000   1.0000   1.0000   1.0000   1.0000   1.0000   1.0000
     1.0000   1.0000   1.0000   1.0000   1.0000   1.0000   1.0000   1.0000
     1.0000   1.0000   1.0000   1.0000   1.0000   1.0000   1.0000   1.0000
     1.0000   1.0000   1.0000   1.0000   1.0000   1.0000   1.0000   1.0000
     1.0000   1.0000   1.0000   1.0000   1.0000   1.0000   1.0000   1.0000
     1.0000   1.0000   1.0000   1.0000   1.0000   1.0000   0.5000   0.5000
     0.0000   0.0000   0.0000   0.0000   0.0000   0.0000   0.0000   0.0000
     0.0000   0.0000   0.0000   0.0000   0.0000   0.0000   0.0000   0.0000
     0.0000   0.0000   0.0000   0.0000   0.0000   0.0000   0.0000   0.0000

     the spin up/dw Fermi energies are    15.3344   15.3339 ev

!    total energy              =    -724.39490641 Ry
     Harris-Foulkes estimate   =    -724.39490591 Ry
     estimated scf accuracy    <       0.00000040 Ry

     The total energy is the sum of the following terms:

     one-electron contribution =     232.56868252 Ry
     hartree contribution      =      69.90308432 Ry
     xc contribution           =    -226.58981413 Ry
     ewald contribution        =    -800.27620275 Ry
     smearing contrib. (-TS)   =      -0.00065637 Ry

     total magnetization       =    -0.00 Bohr mag/cell
     absolute magnetization    =     0.00 Bohr mag/cell

     convergence has been achieved in   9 iterations

     Writing output data file di.save
 
     init_run     :      3.29s CPU      3.63s WALL (       1 calls)
     electrons    :     10.89s CPU     11.24s WALL (       1 calls)

     Called by init_run:
     wfcinit      :      0.37s CPU      0.39s WALL (       1 calls)
     wfcinit:atom :      0.00s CPU      0.00s WALL (       1 calls)
     wfcinit:wfcr :      0.35s CPU      0.36s WALL (       1 calls)
     potinit      :      0.44s CPU      0.45s WALL (       1 calls)

     Called by electrons:
     c_bands      :      9.89s CPU     10.21s WALL (       9 calls)
     sum_band     :      0.54s CPU      0.54s WALL (       9 calls)
     v_of_rho     :      0.36s CPU      0.36s WALL (      10 calls)
     v_h          :      0.01s CPU      0.01s WALL (      10 calls)
     v_xc         :      0.35s CPU      0.35s WALL (      10 calls)
     mix_rho      :      0.06s CPU      0.07s WALL (       9 calls)

     Called by c_bands:
     init_us_2    :      0.08s CPU      0.09s WALL (      19 calls)
     cegterg      :      9.19s CPU      9.50s WALL (       9 calls)

     Called by sum_band:

     Called by *egterg:
     h_psi        :      4.12s CPU      4.19s WALL (      65 calls)
     g_psi        :      0.02s CPU      0.02s WALL (      55 calls)
     cdiaghg      :      3.22s CPU      3.36s WALL (      64 calls)
     cegterg:over :      0.80s CPU      0.80s WALL (      55 calls)
     cegterg:upda :      0.80s CPU      0.81s WALL (      55 calls)
     cegterg:last :      0.26s CPU      0.26s WALL (       9 calls)
     cdiaghg:chol :      0.27s CPU      0.30s WALL (      64 calls)
     cdiaghg:inve :      0.18s CPU      0.18s WALL (      64 calls)
     cdiaghg:para :      0.26s CPU      0.30s WALL (     128 calls)

     Called by h_psi:
     h_psi:pot    :      4.07s CPU      4.13s WALL (      65 calls)
     h_psi:calbec :      0.89s CPU      0.92s WALL (      65 calls)
     vloc_psi     :      2.25s CPU      2.29s WALL (      65 calls)
     add_vuspsi   :      0.92s CPU      0.93s WALL (      65 calls)

     General routines
     calbec       :      0.89s CPU      0.92s WALL (      65 calls)
     fft          :      0.11s CPU      0.18s WALL (     207 calls)
     fftw         :      2.44s CPU      2.40s WALL (    9184 calls)
 
     Parallel routines
     fft_scatter  :      0.71s CPU      0.71s WALL (    9391 calls)
 
     PWSCF        :    14.84s CPU        16.94s WALL

 
   This run was terminated on:  13:18:42   1Jun2021            

=------------------------------------------------------------------------------=
   JOB DONE.
=------------------------------------------------------------------------------=
