
     Program PWSCF v.6.1 (svn rev. 13369) starts on  1Jun2021 at 13:18:25 

     This program is part of the open-source Quantum ESPRESSO suite
     for quantum simulation of materials; please cite
         "P. Giannozzi et al., J. Phys.:Condens. Matter 21 395502 (2009);
          URL http://www.quantum-espresso.org", 
     in publications or presentations arising from this work. More details at
     http://www.quantum-espresso.org/quote

     Parallel version (MPI), running on    32 processors
     K-points division:     npool     =       2
     R & G space division:  proc/nbgrp/npool/nimage =      16
     Reading input from scf.in
Warning: card &IONS ignored
Warning: card / ignored

     Current dimensions of program PWSCF are:
     Max number of different atomic species (ntypx) = 10
     Max number of k-points (npk) =  40000
     Max angular momentum in pseudopotentials (lmaxx) =  3

     Subspace diagonalization in iterative solution of the eigenvalue problem:
     one sub-group per band group will be used
     scalapack distributed-memory algorithm (size of sub-group:  4*  4 procs)

 
     Parallelization info
     --------------------
     sticks:   dense  smooth     PW     G-vecs:    dense   smooth      PW
     Min         252     252     62                12125    12125    1510
     Max         254     254     63                12129    12129    1515
     Sum        4049    4049   1005               194039   194039   24207
 


     bravais-lattice index     =            1
     lattice parameter (alat)  =      13.4862  a.u.
     unit-cell volume          =    2452.8358 (a.u.)^3
     number of atoms/cell      =           63
     number of atomic types    =            2
     number of electrons       =       254.00 (up: 127.00, down: 127.00)
     number of Kohn-Sham states=          152
     kinetic-energy cutoff     =      70.0000  Ry
     charge density cutoff     =     280.0000  Ry
     convergence threshold     =      1.0E-06
     mixing beta               =       0.5000
     number of iterations used =            8  plain     mixing
     Exchange-correlation      = PBE ( 1  4  3  4 0 0)

     celldm(1)=  13.486197  celldm(2)=   0.000000  celldm(3)=   0.000000
     celldm(4)=   0.000000  celldm(5)=   0.000000  celldm(6)=   0.000000

     crystal axes: (cart. coord. in units of alat)
               a(1) = (   1.000000   0.000000   0.000000 )  
               a(2) = (   0.000000   1.000000   0.000000 )  
               a(3) = (   0.000000   0.000000   1.000000 )  

     reciprocal axes: (cart. coord. in units 2 pi/alat)
               b(1) = (  1.000000  0.000000  0.000000 )  
               b(2) = (  0.000000  1.000000  0.000000 )  
               b(3) = (  0.000000  0.000000  1.000000 )  


     PseudoPot. # 1 for C  read from file:
     /export/data/share/tjsmart/Pseudo/C_ONCV_PBE-1.0.upf
     MD5 check sum: 72b63e32b2fd29504de26a4901699f60
     Pseudo is Norm-conserving, Zval =  4.0
     Generated using ONCVPSP code by D. R. Hamann
     Using radial grid of 1248 points,  4 beta functions with: 
                l(1) =   0
                l(2) =   0
                l(3) =   1
                l(4) =   1

     PseudoPot. # 2 for N  read from file:
     /export/data/share/tjsmart/Pseudo/N_ONCV_PBE-1.0.upf
     MD5 check sum: 09890da6b2972017450f7114a6086fad
     Pseudo is Norm-conserving, Zval =  5.0
     Generated using ONCVPSP code by D. R. Hamann
     Using radial grid of 1058 points,  4 beta functions with: 
                l(1) =   0
                l(2) =   0
                l(3) =   1
                l(4) =   1

     atomic species   valence    mass     pseudopotential
        C              4.00    12.01110     C ( 1.00)
        N              5.00    14.00670     N ( 1.00)

     Starting magnetic structure 
     atomic species   magnetization
        C            0.200
        N            0.200

      6 Sym. Ops. (no inversion) found


                                    s                        frac. trans.

      isym =  1     identity                                     

 cryst.   s( 1) = (     1          0          0      )
                  (     0          1          0      )
                  (     0          0          1      )

 cart.    s( 1) = (  1.0000000  0.0000000  0.0000000 )
                  (  0.0000000  1.0000000  0.0000000 )
                  (  0.0000000  0.0000000  1.0000000 )


      isym =  2     120 deg rotation - cart. axis [-1,-1,-1]     

 cryst.   s( 2) = (     0          0          1      )
                  (     1          0          0      )
                  (     0          1          0      )

 cart.    s( 2) = (  0.0000000  1.0000000  0.0000000 )
                  (  0.0000000  0.0000000  1.0000000 )
                  (  1.0000000  0.0000000  0.0000000 )


      isym =  3     120 deg rotation - cart. axis [1,1,1]        

 cryst.   s( 3) = (     0          1          0      )
                  (     0          0          1      )
                  (     1          0          0      )

 cart.    s( 3) = (  0.0000000  0.0000000  1.0000000 )
                  (  1.0000000  0.0000000  0.0000000 )
                  (  0.0000000  1.0000000  0.0000000 )


      isym =  4     inv. 180 deg rotation - cart. axis [1,-1,0]  

 cryst.   s( 4) = (     0          1          0      )
                  (     1          0          0      )
                  (     0          0          1      )

 cart.    s( 4) = (  0.0000000  1.0000000  0.0000000 )
                  (  1.0000000  0.0000000  0.0000000 )
                  (  0.0000000  0.0000000  1.0000000 )


      isym =  5     inv. 180 deg rotation - cart. axis [-1,0,1]  

 cryst.   s( 5) = (     0          0          1      )
                  (     0          1          0      )
                  (     1          0          0      )

 cart.    s( 5) = (  0.0000000  0.0000000  1.0000000 )
                  (  0.0000000  1.0000000  0.0000000 )
                  (  1.0000000  0.0000000  0.0000000 )


      isym =  6     inv. 180 deg rotation - cart. axis [0,1,-1]  

 cryst.   s( 6) = (     1          0          0      )
                  (     0          0          1      )
                  (     0          1          0      )

 cart.    s( 6) = (  1.0000000  0.0000000  0.0000000 )
                  (  0.0000000  0.0000000  1.0000000 )
                  (  0.0000000  1.0000000  0.0000000 )


     point group C_3v (3m)  
     there are  3 classes
     the character table:

       E     2C3   3s_v 
A_1    1.00  1.00  1.00
A_2    1.00  1.00 -1.00
E      2.00 -1.00  0.00

     the symmetry operations in each class and the name of the first element:

     E        1
          identity                                               
     2C3      2    3
          120 deg rotation - cart. axis [-1,-1,-1]               
     3s_v     4    5    6
          inv. 180 deg rotation - cart. axis [1,-1,0]            

   Cartesian axes

     site n.     atom                  positions (alat units)
         1           C   tau(   1) = (   0.3757311   0.3757311   0.8737048  )
         2           C   tau(   2) = (   0.5000258   0.0001580   0.0001580  )
         3           C   tau(   3) = (   0.5000642  -0.0000239   0.5000642  )
         4           C   tau(   4) = (   0.0001580   0.5000258   0.0001580  )
         5           C   tau(   5) = (  -0.0000239   0.5000642   0.5000642  )
         6           C   tau(   6) = (  -0.0001102  -0.0001102  -0.0001102  )
         7           C   tau(   7) = (   0.0001580   0.0001580   0.5000258  )
         8           C   tau(   8) = (   0.2501920   0.2501920  -0.0012707  )
         9           C   tau(   9) = (   0.2505320   0.2505320   0.4945601  )
        10           C   tau(  10) = (   0.2504401   0.7490137   0.0010230  )
        11           C   tau(  11) = (   0.2528289   0.7476533   0.5015741  )
        12           C   tau(  12) = (   0.7490137   0.2504401   0.0010230  )
        13           C   tau(  13) = (   0.7476533   0.2528289   0.5015741  )
        14           C   tau(  14) = (   0.7496691   0.7496691  -0.0001254  )
        15           C   tau(  15) = (   0.5000642   0.5000642  -0.0000239  )
        16           C   tau(  16) = (   0.7492098   0.7492098   0.4988404  )
        17           C   tau(  17) = (   0.5015741   0.2528289   0.7476533  )
        18           C   tau(  18) = (   0.5015741   0.7476533   0.2528289  )
        19           C   tau(  19) = (   0.4988404   0.7492098   0.7492098  )
        20           C   tau(  20) = (  -0.0012707   0.2501920   0.2501920  )
        21           C   tau(  21) = (   0.0010230   0.2504401   0.7490137  )
        22           C   tau(  22) = (   0.0010230   0.7490137   0.2504401  )
        23           C   tau(  23) = (  -0.0001254   0.7496691   0.7496691  )
        24           C   tau(  24) = (   0.2505320   0.4945601   0.2505320  )
        25           C   tau(  25) = (   0.2528289   0.5015741   0.7476533  )
        26           C   tau(  26) = (   0.2501920  -0.0012707   0.2501920  )
        27           C   tau(  27) = (   0.2504401   0.0010230   0.7490137  )
        28           C   tau(  28) = (   0.7476533   0.5015741   0.2528289  )
        29           C   tau(  29) = (   0.7492098   0.4988404   0.7492098  )
        30           C   tau(  30) = (   0.4945601   0.2505320   0.2505320  )
        31           C   tau(  31) = (   0.7490137   0.0010230   0.2504401  )
        32           C   tau(  32) = (   0.6247337   0.8745453   0.6247337  )
        33           C   tau(  33) = (   0.6345137   0.3680873   0.6345137  )
        34           C   tau(  34) = (   0.3759221   0.8761994   0.8761994  )
        35           C   tau(  35) = (   0.3757311   0.8737048   0.3757311  )
        36           C   tau(  36) = (   0.8761994   0.3759221   0.8761994  )
        37           C   tau(  37) = (   0.8737048   0.3757311   0.3757311  )
        38           C   tau(  38) = (   0.8747396   0.8747396   0.8747396  )
        39           C   tau(  39) = (   0.8761994   0.8761994   0.3759221  )
        40           C   tau(  40) = (   0.1253854   0.1253854   0.8742212  )
        41           C   tau(  41) = (   0.1237552   0.1237552   0.3748651  )
        42           C   tau(  42) = (   0.1244680   0.6245824   0.8758047  )
        43           C   tau(  43) = (   0.1271669   0.6228539   0.3762993  )
        44           C   tau(  44) = (   0.6245824   0.1244680   0.8758047  )
        45           C   tau(  45) = (   0.6228539   0.1271669   0.3762993  )
        46           C   tau(  46) = (   0.6245824   0.8758047   0.1244680  )
        47           C   tau(  47) = (   0.6247337   0.6247337   0.8745453  )
        48           C   tau(  48) = (   0.3748651   0.1237552   0.1237552  )
        49           C   tau(  49) = (   0.3762993   0.1271669   0.6228539  )
        50           C   tau(  50) = (   0.3762993   0.6228539   0.1271669  )
        51           C   tau(  51) = (   0.3680873   0.6345137   0.6345137  )
        52           C   tau(  52) = (   0.8742212   0.1253854   0.1253854  )
        53           C   tau(  53) = (   0.8758047   0.1244680   0.6245824  )
        54           C   tau(  54) = (   0.8758047   0.6245824   0.1244680  )
        55           C   tau(  55) = (   0.8745453   0.6247337   0.6247337  )
        56           C   tau(  56) = (   0.1237552   0.3748651   0.1237552  )
        57           C   tau(  57) = (   0.1271669   0.3762993   0.6228539  )
        58           C   tau(  58) = (   0.1253854   0.8742212   0.1253854  )
        59           C   tau(  59) = (   0.1244680   0.8758047   0.6245824  )
        60           C   tau(  60) = (   0.6228539   0.3762993   0.1271669  )
        61           C   tau(  61) = (   0.6345137   0.6345137   0.3680873  )
        62           C   tau(  62) = (   0.7496691  -0.0001254   0.7496691  )
        63           N   tau(  63) = (   0.3643153   0.3643153   0.3643153  )

   Crystallographic axes

     site n.     atom                  positions (cryst. coord.)
         1           C   tau(   1) = (  0.3757311  0.3757311  0.8737048  )
         2           C   tau(   2) = (  0.5000258  0.0001580  0.0001580  )
         3           C   tau(   3) = (  0.5000642 -0.0000239  0.5000642  )
         4           C   tau(   4) = (  0.0001580  0.5000258  0.0001580  )
         5           C   tau(   5) = ( -0.0000239  0.5000642  0.5000642  )
         6           C   tau(   6) = ( -0.0001102 -0.0001102 -0.0001102  )
         7           C   tau(   7) = (  0.0001580  0.0001580  0.5000258  )
         8           C   tau(   8) = (  0.2501920  0.2501920 -0.0012707  )
         9           C   tau(   9) = (  0.2505320  0.2505320  0.4945601  )
        10           C   tau(  10) = (  0.2504401  0.7490137  0.0010230  )
        11           C   tau(  11) = (  0.2528289  0.7476533  0.5015741  )
        12           C   tau(  12) = (  0.7490137  0.2504401  0.0010230  )
        13           C   tau(  13) = (  0.7476533  0.2528289  0.5015741  )
        14           C   tau(  14) = (  0.7496691  0.7496691 -0.0001254  )
        15           C   tau(  15) = (  0.5000642  0.5000642 -0.0000239  )
        16           C   tau(  16) = (  0.7492098  0.7492098  0.4988404  )
        17           C   tau(  17) = (  0.5015741  0.2528289  0.7476533  )
        18           C   tau(  18) = (  0.5015741  0.7476533  0.2528289  )
        19           C   tau(  19) = (  0.4988404  0.7492098  0.7492098  )
        20           C   tau(  20) = ( -0.0012707  0.2501920  0.2501920  )
        21           C   tau(  21) = (  0.0010230  0.2504401  0.7490137  )
        22           C   tau(  22) = (  0.0010230  0.7490137  0.2504401  )
        23           C   tau(  23) = ( -0.0001254  0.7496691  0.7496691  )
        24           C   tau(  24) = (  0.2505320  0.4945601  0.2505320  )
        25           C   tau(  25) = (  0.2528289  0.5015741  0.7476533  )
        26           C   tau(  26) = (  0.2501920 -0.0012707  0.2501920  )
        27           C   tau(  27) = (  0.2504401  0.0010230  0.7490137  )
        28           C   tau(  28) = (  0.7476533  0.5015741  0.2528289  )
        29           C   tau(  29) = (  0.7492098  0.4988404  0.7492098  )
        30           C   tau(  30) = (  0.4945601  0.2505320  0.2505320  )
        31           C   tau(  31) = (  0.7490137  0.0010230  0.2504401  )
        32           C   tau(  32) = (  0.6247337  0.8745453  0.6247337  )
        33           C   tau(  33) = (  0.6345137  0.3680873  0.6345137  )
        34           C   tau(  34) = (  0.3759221  0.8761994  0.8761994  )
        35           C   tau(  35) = (  0.3757311  0.8737048  0.3757311  )
        36           C   tau(  36) = (  0.8761994  0.3759221  0.8761994  )
        37           C   tau(  37) = (  0.8737048  0.3757311  0.3757311  )
        38           C   tau(  38) = (  0.8747396  0.8747396  0.8747396  )
        39           C   tau(  39) = (  0.8761994  0.8761994  0.3759221  )
        40           C   tau(  40) = (  0.1253854  0.1253854  0.8742212  )
        41           C   tau(  41) = (  0.1237552  0.1237552  0.3748651  )
        42           C   tau(  42) = (  0.1244680  0.6245824  0.8758047  )
        43           C   tau(  43) = (  0.1271669  0.6228539  0.3762993  )
        44           C   tau(  44) = (  0.6245824  0.1244680  0.8758047  )
        45           C   tau(  45) = (  0.6228539  0.1271669  0.3762993  )
        46           C   tau(  46) = (  0.6245824  0.8758047  0.1244680  )
        47           C   tau(  47) = (  0.6247337  0.6247337  0.8745453  )
        48           C   tau(  48) = (  0.3748651  0.1237552  0.1237552  )
        49           C   tau(  49) = (  0.3762993  0.1271669  0.6228539  )
        50           C   tau(  50) = (  0.3762993  0.6228539  0.1271669  )
        51           C   tau(  51) = (  0.3680873  0.6345137  0.6345137  )
        52           C   tau(  52) = (  0.8742212  0.1253854  0.1253854  )
        53           C   tau(  53) = (  0.8758047  0.1244680  0.6245824  )
        54           C   tau(  54) = (  0.8758047  0.6245824  0.1244680  )
        55           C   tau(  55) = (  0.8745453  0.6247337  0.6247337  )
        56           C   tau(  56) = (  0.1237552  0.3748651  0.1237552  )
        57           C   tau(  57) = (  0.1271669  0.3762993  0.6228539  )
        58           C   tau(  58) = (  0.1253854  0.8742212  0.1253854  )
        59           C   tau(  59) = (  0.1244680  0.8758047  0.6245824  )
        60           C   tau(  60) = (  0.6228539  0.3762993  0.1271669  )
        61           C   tau(  61) = (  0.6345137  0.6345137  0.3680873  )
        62           C   tau(  62) = (  0.7496691 -0.0001254  0.7496691  )
        63           N   tau(  63) = (  0.3643153  0.3643153  0.3643153  )

     number of k points=     1  Marzari-Vanderbilt smearing, width (Ry)=  0.0010
                       cart. coord. in units 2pi/alat
        k(    1) = (   0.0000000   0.0000000   0.0000000), wk =   1.0000000

                       cryst. coord.
        k(    1) = (   0.0000000   0.0000000   0.0000000), wk =   1.0000000

     Dense  grid:   194039 G-vectors     FFT dimensions: (  72,  72,  72)

     Estimated max dynamical RAM per process >      42.63MB

     Estimated total allocated dynamical RAM >    1364.05MB
     Generating pointlists ...
     new r_m :   0.0854 (alat units)  1.1517 (a.u.) for type    1
     new r_m :   0.0854 (alat units)  1.1517 (a.u.) for type    2

     Initial potential from superposition of free atoms

     starting charge  252.99722, renormalised to  254.00000
     Starting wfc are  252 randomized atomic wfcs

     total cpu time spent up to now is        3.2 secs

     per-process dynamical memory:    49.0 Mb

     Self-consistent Calculation

     iteration #  1     ecut=    70.00 Ry     beta=0.50
     Davidson diagonalization with overlap
     ethr =  1.00E-02,  avg # of iterations =  3.0

     total cpu time spent up to now is        4.3 secs

     total energy              =    -723.96812346 Ry
     Harris-Foulkes estimate   =    -724.47184032 Ry
     estimated scf accuracy    <       4.37816531 Ry

     total magnetization       =    -0.00 Bohr mag/cell
     absolute magnetization    =     0.88 Bohr mag/cell

     iteration #  2     ecut=    70.00 Ry     beta=0.50
     Davidson diagonalization with overlap
     ethr =  1.72E-03,  avg # of iterations =  2.0

     total cpu time spent up to now is        5.0 secs

     total energy              =    -724.27961826 Ry
     Harris-Foulkes estimate   =    -724.21565844 Ry
     estimated scf accuracy    <       0.70687858 Ry

     total magnetization       =     0.00 Bohr mag/cell
     absolute magnetization    =     0.33 Bohr mag/cell

     iteration #  3     ecut=    70.00 Ry     beta=0.50
     Davidson diagonalization with overlap
     ethr =  2.78E-04,  avg # of iterations =  6.0

     total cpu time spent up to now is        6.2 secs

     total energy              =    -724.34762464 Ry
     Harris-Foulkes estimate   =    -724.40182004 Ry
     estimated scf accuracy    <       0.18739439 Ry

     total magnetization       =     0.00 Bohr mag/cell
     absolute magnetization    =     0.12 Bohr mag/cell

     iteration #  4     ecut=    70.00 Ry     beta=0.50
     Davidson diagonalization with overlap
     ethr =  7.38E-05,  avg # of iterations = 12.5

     total cpu time spent up to now is        7.9 secs

     total energy              =    -724.39257902 Ry
     Harris-Foulkes estimate   =    -724.38929017 Ry
     estimated scf accuracy    <       0.01178763 Ry

     total magnetization       =    -0.00 Bohr mag/cell
     absolute magnetization    =     0.07 Bohr mag/cell

     iteration #  5     ecut=    70.00 Ry     beta=0.50
     Davidson diagonalization with overlap
     c_bands:  1 eigenvalues not converged
     ethr =  4.64E-06,  avg # of iterations = 20.0

     total cpu time spent up to now is       10.4 secs

     total energy              =    -724.39558985 Ry
     Harris-Foulkes estimate   =    -724.39545536 Ry
     estimated scf accuracy    <       0.00147417 Ry

     total magnetization       =     0.00 Bohr mag/cell
     absolute magnetization    =     0.03 Bohr mag/cell

     iteration #  6     ecut=    70.00 Ry     beta=0.50
     Davidson diagonalization with overlap
     ethr =  5.80E-07,  avg # of iterations = 12.0

     total cpu time spent up to now is       12.0 secs

     total energy              =    -724.39586750 Ry
     Harris-Foulkes estimate   =    -724.39588406 Ry
     estimated scf accuracy    <       0.00018266 Ry

     total magnetization       =     0.00 Bohr mag/cell
     absolute magnetization    =     0.02 Bohr mag/cell

     iteration #  7     ecut=    70.00 Ry     beta=0.50
     Davidson diagonalization with overlap
     ethr =  7.19E-08,  avg # of iterations =  3.5

     total cpu time spent up to now is       13.0 secs

     total energy              =    -724.39591952 Ry
     Harris-Foulkes estimate   =    -724.39592630 Ry
     estimated scf accuracy    <       0.00003074 Ry

     total magnetization       =     0.00 Bohr mag/cell
     absolute magnetization    =     0.01 Bohr mag/cell

     iteration #  8     ecut=    70.00 Ry     beta=0.50
     Davidson diagonalization with overlap
     ethr =  1.21E-08,  avg # of iterations =  3.0

     total cpu time spent up to now is       13.9 secs

     total energy              =    -724.39592691 Ry
     Harris-Foulkes estimate   =    -724.39592646 Ry
     estimated scf accuracy    <       0.00000223 Ry

     total magnetization       =     0.00 Bohr mag/cell
     absolute magnetization    =     0.01 Bohr mag/cell

     iteration #  9     ecut=    70.00 Ry     beta=0.50
     Davidson diagonalization with overlap
     ethr =  8.78E-10,  avg # of iterations =  3.0
 
     Magnetic moment per site:
     atom:    1    charge:    1.8266    magn:   -0.0000    constr:    0.0000
     atom:    2    charge:    1.8421    magn:   -0.0000    constr:    0.0000
     atom:    3    charge:    1.8318    magn:    0.0000    constr:    0.0000
     atom:    4    charge:    1.8421    magn:   -0.0000    constr:    0.0000
     atom:    5    charge:    1.8318    magn:    0.0000    constr:    0.0000
     atom:    6    charge:    1.8217    magn:    0.0000    constr:    0.0000
     atom:    7    charge:    1.8421    magn:   -0.0000    constr:    0.0000
     atom:    8    charge:    1.8255    magn:    0.0000    constr:    0.0000
     atom:    9    charge:    1.8044    magn:   -0.0002    constr:    0.0000
     atom:   10    charge:    1.8194    magn:    0.0000    constr:    0.0000
     atom:   11    charge:    1.8287    magn:    0.0000    constr:    0.0000
     atom:   12    charge:    1.8194    magn:    0.0000    constr:    0.0000
     atom:   13    charge:    1.8287    magn:    0.0000    constr:    0.0000
     atom:   14    charge:    1.8255    magn:    0.0000    constr:    0.0000
     atom:   15    charge:    1.8318    magn:    0.0000    constr:    0.0000
     atom:   16    charge:    1.8336    magn:    0.0000    constr:    0.0000
     atom:   17    charge:    1.8287    magn:    0.0000    constr:    0.0000
     atom:   18    charge:    1.8287    magn:    0.0000    constr:    0.0000
     atom:   19    charge:    1.8336    magn:    0.0000    constr:    0.0000
     atom:   20    charge:    1.8255    magn:    0.0000    constr:    0.0000
     atom:   21    charge:    1.8194    magn:    0.0000    constr:    0.0000
     atom:   22    charge:    1.8194    magn:    0.0000    constr:    0.0000
     atom:   23    charge:    1.8255    magn:    0.0000    constr:    0.0000
     atom:   24    charge:    1.8044    magn:   -0.0002    constr:    0.0000
     atom:   25    charge:    1.8287    magn:    0.0000    constr:    0.0000
     atom:   26    charge:    1.8255    magn:    0.0000    constr:    0.0000
     atom:   27    charge:    1.8194    magn:    0.0000    constr:    0.0000
     atom:   28    charge:    1.8287    magn:    0.0000    constr:    0.0000
     atom:   29    charge:    1.8336    magn:    0.0000    constr:    0.0000
     atom:   30    charge:    1.8044    magn:   -0.0002    constr:    0.0000
     atom:   31    charge:    1.8194    magn:    0.0000    constr:    0.0000
     atom:   32    charge:    1.8255    magn:    0.0000    constr:    0.0000
     atom:   33    charge:    1.8355    magn:    0.0000    constr:    0.0000
     atom:   34    charge:    1.8237    magn:    0.0000    constr:    0.0000
     atom:   35    charge:    1.8266    magn:   -0.0000    constr:    0.0000
     atom:   36    charge:    1.8237    magn:    0.0000    constr:    0.0000
     atom:   37    charge:    1.8266    magn:   -0.0000    constr:    0.0000
     atom:   38    charge:    1.8273    magn:    0.0000    constr:    0.0000
     atom:   39    charge:    1.8237    magn:    0.0000    constr:    0.0000
     atom:   40    charge:    1.8286    magn:    0.0000    constr:    0.0000
     atom:   41    charge:    1.8359    magn:    0.0000    constr:    0.0000
     atom:   42    charge:    1.8234    magn:    0.0000    constr:    0.0000
     atom:   43    charge:    1.8219    magn:    0.0000    constr:    0.0000
     atom:   44    charge:    1.8234    magn:    0.0000    constr:    0.0000
     atom:   45    charge:    1.8219    magn:    0.0000    constr:    0.0000
     atom:   46    charge:    1.8234    magn:    0.0000    constr:    0.0000
     atom:   47    charge:    1.8255    magn:    0.0000    constr:    0.0000
     atom:   48    charge:    1.8359    magn:    0.0000    constr:    0.0000
     atom:   49    charge:    1.8219    magn:    0.0000    constr:    0.0000
     atom:   50    charge:    1.8219    magn:    0.0000    constr:    0.0000
     atom:   51    charge:    1.8355    magn:    0.0000    constr:    0.0000
     atom:   52    charge:    1.8286    magn:    0.0000    constr:    0.0000
     atom:   53    charge:    1.8234    magn:    0.0000    constr:    0.0000
     atom:   54    charge:    1.8234    magn:    0.0000    constr:    0.0000
     atom:   55    charge:    1.8255    magn:    0.0000    constr:    0.0000
     atom:   56    charge:    1.8359    magn:    0.0000    constr:    0.0000
     atom:   57    charge:    1.8219    magn:    0.0000    constr:    0.0000
     atom:   58    charge:    1.8286    magn:    0.0000    constr:    0.0000
     atom:   59    charge:    1.8234    magn:    0.0000    constr:    0.0000
     atom:   60    charge:    1.8219    magn:    0.0000    constr:    0.0000
     atom:   61    charge:    1.8355    magn:    0.0000    constr:    0.0000
     atom:   62    charge:    1.8255    magn:    0.0000    constr:    0.0000
     atom:   63    charge:    2.9211    magn:    0.0007    constr:    0.0000

     total cpu time spent up to now is       14.9 secs

     End of self-consistent calculation

 ------ SPIN UP ------------


          k = 0.0000 0.0000 0.0000 ( 24207 PWs)   bands (ev):

    -8.5402  -6.9520  -6.2505  -6.2505  -6.1353  -6.1353  -5.8611  -4.9122
    -4.1080  -4.1080  -4.0829  -4.0829  -3.9949  -3.9949  -3.9674  -3.9154
    -3.8458  -3.8458  -3.3432  -2.9392  -2.6430  -2.6430  -2.0400  -0.3555
    -0.3555  -0.3254  -0.2941  -0.0679   0.1929   0.1929   0.3002   0.3002
     0.3694   0.6183   0.8334   0.8334   0.9996   0.9996   1.0278   1.0418
     1.0418   1.0737   1.3711   1.3711   3.0788   3.9186   3.9186   4.0490
     4.2379   4.2435   4.2435   4.2476   4.2806   4.2806   4.4401   4.4401
     4.4889   4.4889   4.6018   4.6613   4.6613   4.6634   4.6723   4.7618
     4.7618   4.8895   4.9511   4.9511   5.0720   5.2304   5.2304   5.2879
     5.3474   5.3474   5.3881   5.4261   5.4261   6.0303   6.0303   6.0578
     6.6223   6.6223   6.7368   7.0027   7.0459   7.0459   7.5423   8.3277
     8.3277   8.3981   8.4721   8.4721   8.6507   8.6507   8.8051   8.8171
     8.8171   8.8224   8.8770   8.8770   8.9056   9.2685   9.2724   9.2724
     9.6949   9.6949   9.8949   9.9048   9.9048   9.9184   9.9472   9.9674
     9.9674   9.9717  10.0023  10.0023  10.1110  10.1110  10.2646  10.2646
    10.3287  11.0882  12.2933  12.4804  12.4804  13.9395  15.3535  15.3535
    17.3309  17.3576  17.3576  17.5151  17.5347  17.5347  17.8429  17.8973
    17.8973  17.9881  17.9881  18.3692  18.9281  18.9281  18.9584  20.6586
    20.7852  20.7852  20.8286  20.9066  20.9067  20.9859  20.9860  21.0192

     occupation numbers 
     1.0000   1.0000   1.0000   1.0000   1.0000   1.0000   1.0000   1.0000
     1.0000   1.0000   1.0000   1.0000   1.0000   1.0000   1.0000   1.0000
     1.0000   1.0000   1.0000   1.0000   1.0000   1.0000   1.0000   1.0000
     1.0000   1.0000   1.0000   1.0000   1.0000   1.0000   1.0000   1.0000
     1.0000   1.0000   1.0000   1.0000   1.0000   1.0000   1.0000   1.0000
     1.0000   1.0000   1.0000   1.0000   1.0000   1.0000   1.0000   1.0000
     1.0000   1.0000   1.0000   1.0000   1.0000   1.0000   1.0000   1.0000
     1.0000   1.0000   1.0000   1.0000   1.0000   1.0000   1.0000   1.0000
     1.0000   1.0000   1.0000   1.0000   1.0000   1.0000   1.0000   1.0000
     1.0000   1.0000   1.0000   1.0000   1.0000   1.0000   1.0000   1.0000
     1.0000   1.0000   1.0000   1.0000   1.0000   1.0000   1.0000   1.0000
     1.0000   1.0000   1.0000   1.0000   1.0000   1.0000   1.0000   1.0000
     1.0000   1.0000   1.0000   1.0000   1.0000   1.0000   1.0000   1.0000
     1.0000   1.0000   1.0000   1.0000   1.0000   1.0000   1.0000   1.0000
     1.0000   1.0000   1.0000   1.0000   1.0000   1.0000   1.0000   1.0000
     1.0000   1.0000   1.0000   1.0000   1.0000   1.0000   0.5000   0.5000
     0.0000   0.0000   0.0000   0.0000   0.0000   0.0000   0.0000   0.0000
     0.0000   0.0000   0.0000   0.0000   0.0000   0.0000   0.0000   0.0000
     0.0000   0.0000   0.0000   0.0000   0.0000   0.0000   0.0000   0.0000

 ------ SPIN DOWN ----------


          k = 0.0000 0.0000 0.0000 ( 24207 PWs)   bands (ev):

    -8.5403  -6.9514  -6.2507  -6.2507  -6.1355  -6.1355  -5.8611  -4.9118
    -4.1081  -4.1081  -4.0832  -4.0832  -3.9950  -3.9950  -3.9675  -3.9155
    -3.8459  -3.8459  -3.3433  -2.9392  -2.6431  -2.6431  -2.0400  -0.3556
    -0.3556  -0.3255  -0.2943  -0.0676   0.1928   0.1928   0.3001   0.3001
     0.3692   0.6184   0.8333   0.8333   0.9996   0.9996   1.0278   1.0417
     1.0417   1.0737   1.3710   1.3710   3.0787   3.9187   3.9187   4.0490
     4.2379   4.2434   4.2434   4.2476   4.2806   4.2806   4.4401   4.4401
     4.4888   4.4888   4.6017   4.6612   4.6612   4.6634   4.6722   4.7618
     4.7618   4.8895   4.9510   4.9510   5.0719   5.2304   5.2304   5.2879
     5.3473   5.3473   5.3880   5.4261   5.4261   6.0302   6.0302   6.0578
     6.6223   6.6223   6.7367   7.0027   7.0459   7.0459   7.5422   8.3278
     8.3278   8.3981   8.4721   8.4721   8.6508   8.6508   8.8050   8.8171
     8.8171   8.8224   8.8769   8.8769   8.9056   9.2685   9.2724   9.2724
     9.6950   9.6950   9.8949   9.9048   9.9048   9.9184   9.9472   9.9674
     9.9674   9.9717  10.0023  10.0023  10.1111  10.1111  10.2646  10.2646
    10.3288  11.0886  12.2933  12.4803  12.4803  13.9403  15.3531  15.3531
    17.3310  17.3576  17.3576  17.5151  17.5347  17.5347  17.8429  17.8973
    17.8973  17.9881  17.9881  18.3691  18.9282  18.9282  18.9585  20.6588
    20.7852  20.7852  20.8286  20.9067  20.9067  20.9859  20.9860  21.0190

     occupation numbers 
     1.0000   1.0000   1.0000   1.0000   1.0000   1.0000   1.0000   1.0000
     1.0000   1.0000   1.0000   1.0000   1.0000   1.0000   1.0000   1.0000
     1.0000   1.0000   1.0000   1.0000   1.0000   1.0000   1.0000   1.0000
     1.0000   1.0000   1.0000   1.0000   1.0000   1.0000   1.0000   1.0000
     1.0000   1.0000   1.0000   1.0000   1.0000   1.0000   1.0000   1.0000
     1.0000   1.0000   1.0000   1.0000   1.0000   1.0000   1.0000   1.0000
     1.0000   1.0000   1.0000   1.0000   1.0000   1.0000   1.0000   1.0000
     1.0000   1.0000   1.0000   1.0000   1.0000   1.0000   1.0000   1.0000
     1.0000   1.0000   1.0000   1.0000   1.0000   1.0000   1.0000   1.0000
     1.0000   1.0000   1.0000   1.0000   1.0000   1.0000   1.0000   1.0000
     1.0000   1.0000   1.0000   1.0000   1.0000   1.0000   1.0000   1.0000
     1.0000   1.0000   1.0000   1.0000   1.0000   1.0000   1.0000   1.0000
     1.0000   1.0000   1.0000   1.0000   1.0000   1.0000   1.0000   1.0000
     1.0000   1.0000   1.0000   1.0000   1.0000   1.0000   1.0000   1.0000
     1.0000   1.0000   1.0000   1.0000   1.0000   1.0000   1.0000   1.0000
     1.0000   1.0000   1.0000   1.0000   1.0000   1.0000   0.5000   0.5000
     0.0000   0.0000   0.0000   0.0000   0.0000   0.0000   0.0000   0.0000
     0.0000   0.0000   0.0000   0.0000   0.0000   0.0000   0.0000   0.0000
     0.0000   0.0000   0.0000   0.0000   0.0000   0.0000   0.0000   0.0000

     the spin up/dw Fermi energies are    15.3553   15.3550 ev

!    total energy              =    -724.39592812 Ry
     Harris-Foulkes estimate   =    -724.39592759 Ry
     estimated scf accuracy    <       0.00000042 Ry

     The total energy is the sum of the following terms:

     one-electron contribution =     232.93958579 Ry
     hartree contribution      =      69.73316693 Ry
     xc contribution           =    -226.57474118 Ry
     ewald contribution        =    -800.49328329 Ry
     smearing contrib. (-TS)   =      -0.00065637 Ry

     total magnetization       =    -0.00 Bohr mag/cell
     absolute magnetization    =     0.00 Bohr mag/cell

     convergence has been achieved in   9 iterations

     Writing output data file di.save
 
     init_run     :      1.03s CPU      1.26s WALL (       1 calls)
     electrons    :     11.33s CPU     11.75s WALL (       1 calls)

     Called by init_run:
     wfcinit      :      0.35s CPU      0.39s WALL (       1 calls)
     wfcinit:atom :      0.00s CPU      0.00s WALL (       1 calls)
     wfcinit:wfcr :      0.33s CPU      0.36s WALL (       1 calls)
     potinit      :      0.08s CPU      0.10s WALL (       1 calls)

     Called by electrons:
     c_bands      :     10.34s CPU     10.72s WALL (       9 calls)
     sum_band     :      0.54s CPU      0.55s WALL (       9 calls)
     v_of_rho     :      0.37s CPU      0.38s WALL (      10 calls)
     v_h          :      0.01s CPU      0.01s WALL (      10 calls)
     v_xc         :      0.36s CPU      0.37s WALL (      10 calls)
     mix_rho      :      0.06s CPU      0.07s WALL (       9 calls)

     Called by c_bands:
     init_us_2    :      0.09s CPU      0.09s WALL (      19 calls)
     cegterg      :      9.98s CPU     10.35s WALL (       9 calls)

     Called by sum_band:

     Called by *egterg:
     h_psi        :      4.14s CPU      4.23s WALL (      76 calls)
     g_psi        :      0.02s CPU      0.02s WALL (      66 calls)
     cdiaghg      :      3.92s CPU      4.09s WALL (      75 calls)
     cegterg:over :      0.84s CPU      0.85s WALL (      66 calls)
     cegterg:upda :      0.83s CPU      0.84s WALL (      66 calls)
     cegterg:last :      0.26s CPU      0.26s WALL (       9 calls)
     cdiaghg:chol :      0.32s CPU      0.36s WALL (      75 calls)
     cdiaghg:inve :      0.22s CPU      0.22s WALL (      75 calls)
     cdiaghg:para :      0.32s CPU      0.36s WALL (     150 calls)

     Called by h_psi:
     h_psi:pot    :      4.08s CPU      4.18s WALL (      76 calls)
     h_psi:calbec :      0.91s CPU      0.94s WALL (      76 calls)
     vloc_psi     :      2.24s CPU      2.29s WALL (      76 calls)
     add_vuspsi   :      0.92s CPU      0.95s WALL (      76 calls)

     General routines
     calbec       :      0.91s CPU      0.93s WALL (      76 calls)
     fft          :      0.12s CPU      0.19s WALL (     207 calls)
     fftw         :      2.42s CPU      2.40s WALL (    9184 calls)
 
     Parallel routines
     fft_scatter  :      0.72s CPU      0.73s WALL (    9391 calls)
 
     PWSCF        :    13.00s CPU        15.65s WALL

 
   This run was terminated on:  13:18:41   1Jun2021            

=------------------------------------------------------------------------------=
   JOB DONE.
=------------------------------------------------------------------------------=
