
     Program PWSCF v.6.1 (svn rev. 13369) starts on  1Jun2021 at 13:18:21 

     This program is part of the open-source Quantum ESPRESSO suite
     for quantum simulation of materials; please cite
         "P. Giannozzi et al., J. Phys.:Condens. Matter 21 395502 (2009);
          URL http://www.quantum-espresso.org", 
     in publications or presentations arising from this work. More details at
     http://www.quantum-espresso.org/quote

     Parallel version (MPI), running on    32 processors
     K-points division:     npool     =       2
     R & G space division:  proc/nbgrp/npool/nimage =      16
     Reading input from scf.in
Warning: card &IONS ignored
Warning: card / ignored

     Current dimensions of program PWSCF are:
     Max number of different atomic species (ntypx) = 10
     Max number of k-points (npk) =  40000
     Max angular momentum in pseudopotentials (lmaxx) =  3

     Subspace diagonalization in iterative solution of the eigenvalue problem:
     one sub-group per band group will be used
     scalapack distributed-memory algorithm (size of sub-group:  4*  4 procs)

 
     Parallelization info
     --------------------
     sticks:   dense  smooth     PW     G-vecs:    dense   smooth      PW
     Min         252     252     62                12125    12125    1510
     Max         254     254     63                12129    12129    1515
     Sum        4049    4049   1005               194039   194039   24207
 


     bravais-lattice index     =            1
     lattice parameter (alat)  =      13.4862  a.u.
     unit-cell volume          =    2452.8358 (a.u.)^3
     number of atoms/cell      =           63
     number of atomic types    =            2
     number of electrons       =       254.00 (up: 127.00, down: 127.00)
     number of Kohn-Sham states=          152
     kinetic-energy cutoff     =      70.0000  Ry
     charge density cutoff     =     280.0000  Ry
     convergence threshold     =      1.0E-06
     mixing beta               =       0.5000
     number of iterations used =            8  plain     mixing
     Exchange-correlation      = PBE ( 1  4  3  4 0 0)

     celldm(1)=  13.486197  celldm(2)=   0.000000  celldm(3)=   0.000000
     celldm(4)=   0.000000  celldm(5)=   0.000000  celldm(6)=   0.000000

     crystal axes: (cart. coord. in units of alat)
               a(1) = (   1.000000   0.000000   0.000000 )  
               a(2) = (   0.000000   1.000000   0.000000 )  
               a(3) = (   0.000000   0.000000   1.000000 )  

     reciprocal axes: (cart. coord. in units 2 pi/alat)
               b(1) = (  1.000000  0.000000  0.000000 )  
               b(2) = (  0.000000  1.000000  0.000000 )  
               b(3) = (  0.000000  0.000000  1.000000 )  


     PseudoPot. # 1 for C  read from file:
     /export/data/share/tjsmart/Pseudo/C_ONCV_PBE-1.0.upf
     MD5 check sum: 72b63e32b2fd29504de26a4901699f60
     Pseudo is Norm-conserving, Zval =  4.0
     Generated using ONCVPSP code by D. R. Hamann
     Using radial grid of 1248 points,  4 beta functions with: 
                l(1) =   0
                l(2) =   0
                l(3) =   1
                l(4) =   1

     PseudoPot. # 2 for N  read from file:
     /export/data/share/tjsmart/Pseudo/N_ONCV_PBE-1.0.upf
     MD5 check sum: 09890da6b2972017450f7114a6086fad
     Pseudo is Norm-conserving, Zval =  5.0
     Generated using ONCVPSP code by D. R. Hamann
     Using radial grid of 1058 points,  4 beta functions with: 
                l(1) =   0
                l(2) =   0
                l(3) =   1
                l(4) =   1

     atomic species   valence    mass     pseudopotential
        C              4.00    12.01110     C ( 1.00)
        N              5.00    14.00670     N ( 1.00)

     Starting magnetic structure 
     atomic species   magnetization
        C            0.200
        N            0.200

      6 Sym. Ops. (no inversion) found


                                    s                        frac. trans.

      isym =  1     identity                                     

 cryst.   s( 1) = (     1          0          0      )
                  (     0          1          0      )
                  (     0          0          1      )

 cart.    s( 1) = (  1.0000000  0.0000000  0.0000000 )
                  (  0.0000000  1.0000000  0.0000000 )
                  (  0.0000000  0.0000000  1.0000000 )


      isym =  2     120 deg rotation - cart. axis [-1,-1,-1]     

 cryst.   s( 2) = (     0          0          1      )
                  (     1          0          0      )
                  (     0          1          0      )

 cart.    s( 2) = (  0.0000000  1.0000000  0.0000000 )
                  (  0.0000000  0.0000000  1.0000000 )
                  (  1.0000000  0.0000000  0.0000000 )


      isym =  3     120 deg rotation - cart. axis [1,1,1]        

 cryst.   s( 3) = (     0          1          0      )
                  (     0          0          1      )
                  (     1          0          0      )

 cart.    s( 3) = (  0.0000000  0.0000000  1.0000000 )
                  (  1.0000000  0.0000000  0.0000000 )
                  (  0.0000000  1.0000000  0.0000000 )


      isym =  4     inv. 180 deg rotation - cart. axis [1,-1,0]  

 cryst.   s( 4) = (     0          1          0      )
                  (     1          0          0      )
                  (     0          0          1      )

 cart.    s( 4) = (  0.0000000  1.0000000  0.0000000 )
                  (  1.0000000  0.0000000  0.0000000 )
                  (  0.0000000  0.0000000  1.0000000 )


      isym =  5     inv. 180 deg rotation - cart. axis [-1,0,1]  

 cryst.   s( 5) = (     0          0          1      )
                  (     0          1          0      )
                  (     1          0          0      )

 cart.    s( 5) = (  0.0000000  0.0000000  1.0000000 )
                  (  0.0000000  1.0000000  0.0000000 )
                  (  1.0000000  0.0000000  0.0000000 )


      isym =  6     inv. 180 deg rotation - cart. axis [0,1,-1]  

 cryst.   s( 6) = (     1          0          0      )
                  (     0          0          1      )
                  (     0          1          0      )

 cart.    s( 6) = (  1.0000000  0.0000000  0.0000000 )
                  (  0.0000000  0.0000000  1.0000000 )
                  (  0.0000000  1.0000000  0.0000000 )


     point group C_3v (3m)  
     there are  3 classes
     the character table:

       E     2C3   3s_v 
A_1    1.00  1.00  1.00
A_2    1.00  1.00 -1.00
E      2.00 -1.00  0.00

     the symmetry operations in each class and the name of the first element:

     E        1
          identity                                               
     2C3      2    3
          120 deg rotation - cart. axis [-1,-1,-1]               
     3s_v     4    5    6
          inv. 180 deg rotation - cart. axis [1,-1,0]            

   Cartesian axes

     site n.     atom                  positions (alat units)
         1           C   tau(   1) = (   0.3757735   0.3757735   0.8735905  )
         2           C   tau(   2) = (   0.5002349   0.0004014   0.0004014  )
         3           C   tau(   3) = (   0.4999909  -0.0003855   0.4999909  )
         4           C   tau(   4) = (   0.0004014   0.5002349   0.0004014  )
         5           C   tau(   5) = (  -0.0003855   0.4999909   0.4999909  )
         6           C   tau(   6) = (  -0.0001208  -0.0001208  -0.0001208  )
         7           C   tau(   7) = (   0.0004014   0.0004014   0.5002349  )
         8           C   tau(   8) = (   0.2504238   0.2504238  -0.0009453  )
         9           C   tau(   9) = (   0.2512930   0.2512930   0.4961438  )
        10           C   tau(  10) = (   0.2501858   0.7491203   0.0008665  )
        11           C   tau(  11) = (   0.2513169   0.7485044   0.5020459  )
        12           C   tau(  12) = (   0.7491203   0.2501858   0.0008665  )
        13           C   tau(  13) = (   0.7485044   0.2513169   0.5020459  )
        14           C   tau(  14) = (   0.7495283   0.7495283  -0.0007610  )
        15           C   tau(  15) = (   0.4999909   0.4999909  -0.0003855  )
        16           C   tau(  16) = (   0.7486360   0.7486360   0.4983796  )
        17           C   tau(  17) = (   0.5020459   0.2513169   0.7485044  )
        18           C   tau(  18) = (   0.5020459   0.7485044   0.2513169  )
        19           C   tau(  19) = (   0.4983796   0.7486360   0.7486360  )
        20           C   tau(  20) = (  -0.0009453   0.2504238   0.2504238  )
        21           C   tau(  21) = (   0.0008665   0.2501858   0.7491203  )
        22           C   tau(  22) = (   0.0008665   0.7491203   0.2501858  )
        23           C   tau(  23) = (  -0.0007610   0.7495283   0.7495283  )
        24           C   tau(  24) = (   0.2512930   0.4961438   0.2512930  )
        25           C   tau(  25) = (   0.2513169   0.5020459   0.7485044  )
        26           C   tau(  26) = (   0.2504238  -0.0009453   0.2504238  )
        27           C   tau(  27) = (   0.2501858   0.0008665   0.7491203  )
        28           C   tau(  28) = (   0.7485044   0.5020459   0.2513169  )
        29           C   tau(  29) = (   0.7486360   0.4983796   0.7486360  )
        30           C   tau(  30) = (   0.4961438   0.2512930   0.2512930  )
        31           C   tau(  31) = (   0.7491203   0.0008665   0.2501858  )
        32           C   tau(  32) = (   0.6242958   0.8737599   0.6242958  )
        33           C   tau(  33) = (   0.6360294   0.3631019   0.6360294  )
        34           C   tau(  34) = (   0.3757148   0.8762189   0.8762189  )
        35           C   tau(  35) = (   0.3757735   0.8735905   0.3757735  )
        36           C   tau(  36) = (   0.8762189   0.3757148   0.8762189  )
        37           C   tau(  37) = (   0.8735905   0.3757735   0.3757735  )
        38           C   tau(  38) = (   0.8745171   0.8745171   0.8745171  )
        39           C   tau(  39) = (   0.8762189   0.8762189   0.3757148  )
        40           C   tau(  40) = (   0.1253719   0.1253719   0.8744017  )
        41           C   tau(  41) = (   0.1244692   0.1244692   0.3748722  )
        42           C   tau(  42) = (   0.1237005   0.6243556   0.8761080  )
        43           C   tau(  43) = (   0.1266493   0.6233967   0.3763752  )
        44           C   tau(  44) = (   0.6243556   0.1237005   0.8761080  )
        45           C   tau(  45) = (   0.6233967   0.1266493   0.3763752  )
        46           C   tau(  46) = (   0.6243556   0.8761080   0.1237005  )
        47           C   tau(  47) = (   0.6242958   0.6242958   0.8737599  )
        48           C   tau(  48) = (   0.3748722   0.1244692   0.1244692  )
        49           C   tau(  49) = (   0.3763752   0.1266493   0.6233967  )
        50           C   tau(  50) = (   0.3763752   0.6233967   0.1266493  )
        51           C   tau(  51) = (   0.3631019   0.6360294   0.6360294  )
        52           C   tau(  52) = (   0.8744017   0.1253719   0.1253719  )
        53           C   tau(  53) = (   0.8761080   0.1237005   0.6243556  )
        54           C   tau(  54) = (   0.8761080   0.6243556   0.1237005  )
        55           C   tau(  55) = (   0.8737599   0.6242958   0.6242958  )
        56           C   tau(  56) = (   0.1244692   0.3748722   0.1244692  )
        57           C   tau(  57) = (   0.1266493   0.3763752   0.6233967  )
        58           C   tau(  58) = (   0.1253719   0.8744017   0.1253719  )
        59           C   tau(  59) = (   0.1237005   0.8761080   0.6243556  )
        60           C   tau(  60) = (   0.6233967   0.3763752   0.1266493  )
        61           C   tau(  61) = (   0.6360294   0.6360294   0.3631019  )
        62           C   tau(  62) = (   0.7495283  -0.0007610   0.7495283  )
        63           N   tau(  63) = (   0.3673819   0.3673819   0.3673819  )

   Crystallographic axes

     site n.     atom                  positions (cryst. coord.)
         1           C   tau(   1) = (  0.3757735  0.3757735  0.8735905  )
         2           C   tau(   2) = (  0.5002349  0.0004014  0.0004014  )
         3           C   tau(   3) = (  0.4999909 -0.0003855  0.4999909  )
         4           C   tau(   4) = (  0.0004014  0.5002349  0.0004014  )
         5           C   tau(   5) = ( -0.0003855  0.4999909  0.4999909  )
         6           C   tau(   6) = ( -0.0001208 -0.0001208 -0.0001208  )
         7           C   tau(   7) = (  0.0004014  0.0004014  0.5002349  )
         8           C   tau(   8) = (  0.2504238  0.2504238 -0.0009453  )
         9           C   tau(   9) = (  0.2512930  0.2512930  0.4961438  )
        10           C   tau(  10) = (  0.2501858  0.7491203  0.0008665  )
        11           C   tau(  11) = (  0.2513169  0.7485044  0.5020459  )
        12           C   tau(  12) = (  0.7491203  0.2501858  0.0008665  )
        13           C   tau(  13) = (  0.7485044  0.2513169  0.5020459  )
        14           C   tau(  14) = (  0.7495283  0.7495283 -0.0007610  )
        15           C   tau(  15) = (  0.4999909  0.4999909 -0.0003855  )
        16           C   tau(  16) = (  0.7486360  0.7486360  0.4983796  )
        17           C   tau(  17) = (  0.5020459  0.2513169  0.7485044  )
        18           C   tau(  18) = (  0.5020459  0.7485044  0.2513169  )
        19           C   tau(  19) = (  0.4983796  0.7486360  0.7486360  )
        20           C   tau(  20) = ( -0.0009453  0.2504238  0.2504238  )
        21           C   tau(  21) = (  0.0008665  0.2501858  0.7491203  )
        22           C   tau(  22) = (  0.0008665  0.7491203  0.2501858  )
        23           C   tau(  23) = ( -0.0007610  0.7495283  0.7495283  )
        24           C   tau(  24) = (  0.2512930  0.4961438  0.2512930  )
        25           C   tau(  25) = (  0.2513169  0.5020459  0.7485044  )
        26           C   tau(  26) = (  0.2504238 -0.0009453  0.2504238  )
        27           C   tau(  27) = (  0.2501858  0.0008665  0.7491203  )
        28           C   tau(  28) = (  0.7485044  0.5020459  0.2513169  )
        29           C   tau(  29) = (  0.7486360  0.4983796  0.7486360  )
        30           C   tau(  30) = (  0.4961438  0.2512930  0.2512930  )
        31           C   tau(  31) = (  0.7491203  0.0008665  0.2501858  )
        32           C   tau(  32) = (  0.6242958  0.8737599  0.6242958  )
        33           C   tau(  33) = (  0.6360294  0.3631019  0.6360294  )
        34           C   tau(  34) = (  0.3757148  0.8762189  0.8762189  )
        35           C   tau(  35) = (  0.3757735  0.8735905  0.3757735  )
        36           C   tau(  36) = (  0.8762189  0.3757148  0.8762189  )
        37           C   tau(  37) = (  0.8735905  0.3757735  0.3757735  )
        38           C   tau(  38) = (  0.8745171  0.8745171  0.8745171  )
        39           C   tau(  39) = (  0.8762189  0.8762189  0.3757148  )
        40           C   tau(  40) = (  0.1253719  0.1253719  0.8744017  )
        41           C   tau(  41) = (  0.1244692  0.1244692  0.3748722  )
        42           C   tau(  42) = (  0.1237005  0.6243556  0.8761080  )
        43           C   tau(  43) = (  0.1266493  0.6233967  0.3763752  )
        44           C   tau(  44) = (  0.6243556  0.1237005  0.8761080  )
        45           C   tau(  45) = (  0.6233967  0.1266493  0.3763752  )
        46           C   tau(  46) = (  0.6243556  0.8761080  0.1237005  )
        47           C   tau(  47) = (  0.6242958  0.6242958  0.8737599  )
        48           C   tau(  48) = (  0.3748722  0.1244692  0.1244692  )
        49           C   tau(  49) = (  0.3763752  0.1266493  0.6233967  )
        50           C   tau(  50) = (  0.3763752  0.6233967  0.1266493  )
        51           C   tau(  51) = (  0.3631019  0.6360294  0.6360294  )
        52           C   tau(  52) = (  0.8744017  0.1253719  0.1253719  )
        53           C   tau(  53) = (  0.8761080  0.1237005  0.6243556  )
        54           C   tau(  54) = (  0.8761080  0.6243556  0.1237005  )
        55           C   tau(  55) = (  0.8737599  0.6242958  0.6242958  )
        56           C   tau(  56) = (  0.1244692  0.3748722  0.1244692  )
        57           C   tau(  57) = (  0.1266493  0.3763752  0.6233967  )
        58           C   tau(  58) = (  0.1253719  0.8744017  0.1253719  )
        59           C   tau(  59) = (  0.1237005  0.8761080  0.6243556  )
        60           C   tau(  60) = (  0.6233967  0.3763752  0.1266493  )
        61           C   tau(  61) = (  0.6360294  0.6360294  0.3631019  )
        62           C   tau(  62) = (  0.7495283 -0.0007610  0.7495283  )
        63           N   tau(  63) = (  0.3673819  0.3673819  0.3673819  )

     number of k points=     1  Marzari-Vanderbilt smearing, width (Ry)=  0.0010
                       cart. coord. in units 2pi/alat
        k(    1) = (   0.0000000   0.0000000   0.0000000), wk =   1.0000000

                       cryst. coord.
        k(    1) = (   0.0000000   0.0000000   0.0000000), wk =   1.0000000

     Dense  grid:   194039 G-vectors     FFT dimensions: (  72,  72,  72)

     Estimated max dynamical RAM per process >      42.63MB

     Estimated total allocated dynamical RAM >    1364.05MB
     Generating pointlists ...
     new r_m :   0.0856 (alat units)  1.1549 (a.u.) for type    1
     new r_m :   0.0861 (alat units)  1.1607 (a.u.) for type    2

     Initial potential from superposition of free atoms

     starting charge  252.99722, renormalised to  254.00000
     Starting wfc are  252 randomized atomic wfcs

     total cpu time spent up to now is        4.7 secs

     per-process dynamical memory:    49.0 Mb

     Self-consistent Calculation

     iteration #  1     ecut=    70.00 Ry     beta=0.50
     Davidson diagonalization with overlap
     ethr =  1.00E-02,  avg # of iterations =  3.0

     total cpu time spent up to now is        5.8 secs

     total energy              =    -723.96055810 Ry
     Harris-Foulkes estimate   =    -724.47470465 Ry
     estimated scf accuracy    <       4.39568406 Ry

     total magnetization       =     0.00 Bohr mag/cell
     absolute magnetization    =     0.89 Bohr mag/cell

     iteration #  2     ecut=    70.00 Ry     beta=0.50
     Davidson diagonalization with overlap
     ethr =  1.73E-03,  avg # of iterations =  2.0

     total cpu time spent up to now is        6.5 secs

     total energy              =    -724.27495691 Ry
     Harris-Foulkes estimate   =    -724.21233760 Ry
     estimated scf accuracy    <       0.70832832 Ry

     total magnetization       =    -0.00 Bohr mag/cell
     absolute magnetization    =     0.33 Bohr mag/cell

     iteration #  3     ecut=    70.00 Ry     beta=0.50
     Davidson diagonalization with overlap
     ethr =  2.79E-04,  avg # of iterations =  4.0

     total cpu time spent up to now is        7.5 secs

     total energy              =    -724.34432335 Ry
     Harris-Foulkes estimate   =    -724.39719144 Ry
     estimated scf accuracy    <       0.18504907 Ry

     total magnetization       =    -0.00 Bohr mag/cell
     absolute magnetization    =     0.12 Bohr mag/cell

     iteration #  4     ecut=    70.00 Ry     beta=0.50
     Davidson diagonalization with overlap
     ethr =  7.29E-05,  avg # of iterations = 10.0

     total cpu time spent up to now is        9.1 secs

     total energy              =    -724.38878613 Ry
     Harris-Foulkes estimate   =    -724.38561522 Ry
     estimated scf accuracy    <       0.01200981 Ry

     total magnetization       =    -0.00 Bohr mag/cell
     absolute magnetization    =     0.07 Bohr mag/cell

     iteration #  5     ecut=    70.00 Ry     beta=0.50
     Davidson diagonalization with overlap
     ethr =  4.73E-06,  avg # of iterations = 12.0

     total cpu time spent up to now is       10.9 secs

     total energy              =    -724.39182099 Ry
     Harris-Foulkes estimate   =    -724.39166637 Ry
     estimated scf accuracy    <       0.00153205 Ry

     total magnetization       =    -0.00 Bohr mag/cell
     absolute magnetization    =     0.04 Bohr mag/cell

     iteration #  6     ecut=    70.00 Ry     beta=0.50
     Davidson diagonalization with overlap
     ethr =  6.03E-07,  avg # of iterations =  8.0

     total cpu time spent up to now is       12.3 secs

     total energy              =    -724.39210374 Ry
     Harris-Foulkes estimate   =    -724.39212174 Ry
     estimated scf accuracy    <       0.00019046 Ry

     total magnetization       =    -0.00 Bohr mag/cell
     absolute magnetization    =     0.02 Bohr mag/cell

     iteration #  7     ecut=    70.00 Ry     beta=0.50
     Davidson diagonalization with overlap
     ethr =  7.50E-08,  avg # of iterations =  3.0

     total cpu time spent up to now is       13.3 secs

     total energy              =    -724.39215691 Ry
     Harris-Foulkes estimate   =    -724.39216371 Ry
     estimated scf accuracy    <       0.00003073 Ry

     total magnetization       =    -0.00 Bohr mag/cell
     absolute magnetization    =     0.01 Bohr mag/cell

     iteration #  8     ecut=    70.00 Ry     beta=0.50
     Davidson diagonalization with overlap
     ethr =  1.21E-08,  avg # of iterations =  2.5

     total cpu time spent up to now is       14.2 secs

     total energy              =    -724.39216417 Ry
     Harris-Foulkes estimate   =    -724.39216380 Ry
     estimated scf accuracy    <       0.00000231 Ry

     total magnetization       =     0.00 Bohr mag/cell
     absolute magnetization    =     0.01 Bohr mag/cell

     iteration #  9     ecut=    70.00 Ry     beta=0.50
     Davidson diagonalization with overlap
     ethr =  9.11E-10,  avg # of iterations =  3.0
 
     Magnetic moment per site:
     atom:    1    charge:    1.8362    magn:   -0.0000    constr:    0.0000
     atom:    2    charge:    1.8563    magn:   -0.0000    constr:    0.0000
     atom:    3    charge:    1.8447    magn:    0.0000    constr:    0.0000
     atom:    4    charge:    1.8563    magn:   -0.0000    constr:    0.0000
     atom:    5    charge:    1.8447    magn:    0.0000    constr:    0.0000
     atom:    6    charge:    1.8345    magn:    0.0000    constr:    0.0000
     atom:    7    charge:    1.8563    magn:   -0.0000    constr:    0.0000
     atom:    8    charge:    1.8374    magn:    0.0000    constr:    0.0000
     atom:    9    charge:    1.8105    magn:   -0.0002    constr:    0.0000
     atom:   10    charge:    1.8323    magn:    0.0000    constr:    0.0000
     atom:   11    charge:    1.8460    magn:    0.0000    constr:    0.0000
     atom:   12    charge:    1.8323    magn:    0.0000    constr:    0.0000
     atom:   13    charge:    1.8460    magn:    0.0000    constr:    0.0000
     atom:   14    charge:    1.8364    magn:    0.0000    constr:    0.0000
     atom:   15    charge:    1.8447    magn:    0.0000    constr:    0.0000
     atom:   16    charge:    1.8434    magn:    0.0000    constr:    0.0000
     atom:   17    charge:    1.8460    magn:    0.0000    constr:    0.0000
     atom:   18    charge:    1.8460    magn:    0.0000    constr:    0.0000
     atom:   19    charge:    1.8434    magn:    0.0000    constr:    0.0000
     atom:   20    charge:    1.8374    magn:    0.0000    constr:    0.0000
     atom:   21    charge:    1.8323    magn:    0.0000    constr:    0.0000
     atom:   22    charge:    1.8323    magn:    0.0000    constr:    0.0000
     atom:   23    charge:    1.8364    magn:    0.0000    constr:    0.0000
     atom:   24    charge:    1.8105    magn:   -0.0002    constr:    0.0000
     atom:   25    charge:    1.8460    magn:    0.0000    constr:    0.0000
     atom:   26    charge:    1.8374    magn:    0.0000    constr:    0.0000
     atom:   27    charge:    1.8323    magn:    0.0000    constr:    0.0000
     atom:   28    charge:    1.8460    magn:    0.0000    constr:    0.0000
     atom:   29    charge:    1.8434    magn:    0.0000    constr:    0.0000
     atom:   30    charge:    1.8105    magn:   -0.0002    constr:    0.0000
     atom:   31    charge:    1.8323    magn:    0.0000    constr:    0.0000
     atom:   32    charge:    1.8372    magn:   -0.0000    constr:    0.0000
     atom:   33    charge:    1.8578    magn:   -0.0000    constr:    0.0000
     atom:   34    charge:    1.8340    magn:    0.0000    constr:    0.0000
     atom:   35    charge:    1.8362    magn:   -0.0000    constr:    0.0000
     atom:   36    charge:    1.8340    magn:    0.0000    constr:    0.0000
     atom:   37    charge:    1.8362    magn:   -0.0000    constr:    0.0000
     atom:   38    charge:    1.8409    magn:   -0.0000    constr:    0.0000
     atom:   39    charge:    1.8340    magn:    0.0000    constr:    0.0000
     atom:   40    charge:    1.8404    magn:    0.0000    constr:    0.0000
     atom:   41    charge:    1.8452    magn:    0.0000    constr:    0.0000
     atom:   42    charge:    1.8391    magn:    0.0000    constr:    0.0000
     atom:   43    charge:    1.8350    magn:    0.0000    constr:    0.0000
     atom:   44    charge:    1.8391    magn:    0.0000    constr:    0.0000
     atom:   45    charge:    1.8350    magn:    0.0000    constr:    0.0000
     atom:   46    charge:    1.8391    magn:    0.0000    constr:    0.0000
     atom:   47    charge:    1.8372    magn:   -0.0000    constr:    0.0000
     atom:   48    charge:    1.8452    magn:    0.0000    constr:    0.0000
     atom:   49    charge:    1.8350    magn:    0.0000    constr:    0.0000
     atom:   50    charge:    1.8350    magn:    0.0000    constr:    0.0000
     atom:   51    charge:    1.8578    magn:   -0.0000    constr:    0.0000
     atom:   52    charge:    1.8404    magn:    0.0000    constr:    0.0000
     atom:   53    charge:    1.8391    magn:    0.0000    constr:    0.0000
     atom:   54    charge:    1.8391    magn:    0.0000    constr:    0.0000
     atom:   55    charge:    1.8372    magn:   -0.0000    constr:    0.0000
     atom:   56    charge:    1.8452    magn:    0.0000    constr:    0.0000
     atom:   57    charge:    1.8350    magn:    0.0000    constr:    0.0000
     atom:   58    charge:    1.8404    magn:    0.0000    constr:    0.0000
     atom:   59    charge:    1.8391    magn:    0.0000    constr:    0.0000
     atom:   60    charge:    1.8350    magn:    0.0000    constr:    0.0000
     atom:   61    charge:    1.8578    magn:   -0.0000    constr:    0.0000
     atom:   62    charge:    1.8364    magn:    0.0000    constr:    0.0000
     atom:   63    charge:    2.9441    magn:    0.0007    constr:    0.0000

     total cpu time spent up to now is       15.2 secs

     End of self-consistent calculation

 ------ SPIN UP ------------


          k = 0.0000 0.0000 0.0000 ( 24207 PWs)   bands (ev):

    -8.5298  -6.8755  -6.2643  -6.2643  -6.1526  -6.1526  -5.8612  -4.8861
    -4.1183  -4.1183  -4.0889  -4.0889  -4.0082  -4.0018  -4.0018  -3.9248
    -3.8543  -3.8543  -3.3495  -2.9342  -2.6511  -2.6511  -2.0607  -0.3511
    -0.3511  -0.3293  -0.2997  -0.0763   0.1888   0.1888   0.2920   0.2920
     0.3640   0.6167   0.8430   0.8430   0.9849   0.9891   0.9891   1.0442
     1.0450   1.0450   1.3644   1.3644   3.0933   3.9560   3.9560   4.0648
     4.2125   4.2144   4.2144   4.2589   4.2614   4.2614   4.4246   4.4246
     4.4837   4.4837   4.5682   4.6578   4.6581   4.6591   4.6591   4.7648
     4.7648   4.8888   4.9501   4.9501   5.0607   5.2126   5.2126   5.2905
     5.3419   5.3419   5.3778   5.4103   5.4103   6.0308   6.0308   6.0711
     6.6353   6.6353   6.7139   7.0109   7.0261   7.0261   7.5580   8.3415
     8.3415   8.4017   8.4589   8.4589   8.6518   8.6518   8.7798   8.8048
     8.8048   8.8217   8.8707   8.8707   8.8785   9.2655   9.2709   9.2709
     9.6865   9.6865   9.8761   9.8882   9.9094   9.9094   9.9095   9.9509
     9.9509   9.9752   9.9929   9.9929  10.0824  10.0824  10.2871  10.2913
    10.2913  11.1110  12.3434  12.4634  12.4634  14.0436  15.3183  15.3183
    17.3071  17.3497  17.3497  17.4864  17.5458  17.5458  17.8212  17.9042
    17.9042  18.0104  18.0104  18.3699  18.9337  18.9337  18.9688  20.6315
    20.7787  20.7787  20.8268  20.8999  20.9000  20.9895  20.9896  20.9909

     occupation numbers 
     1.0000   1.0000   1.0000   1.0000   1.0000   1.0000   1.0000   1.0000
     1.0000   1.0000   1.0000   1.0000   1.0000   1.0000   1.0000   1.0000
     1.0000   1.0000   1.0000   1.0000   1.0000   1.0000   1.0000   1.0000
     1.0000   1.0000   1.0000   1.0000   1.0000   1.0000   1.0000   1.0000
     1.0000   1.0000   1.0000   1.0000   1.0000   1.0000   1.0000   1.0000
     1.0000   1.0000   1.0000   1.0000   1.0000   1.0000   1.0000   1.0000
     1.0000   1.0000   1.0000   1.0000   1.0000   1.0000   1.0000   1.0000
     1.0000   1.0000   1.0000   1.0000   1.0000   1.0000   1.0000   1.0000
     1.0000   1.0000   1.0000   1.0000   1.0000   1.0000   1.0000   1.0000
     1.0000   1.0000   1.0000   1.0000   1.0000   1.0000   1.0000   1.0000
     1.0000   1.0000   1.0000   1.0000   1.0000   1.0000   1.0000   1.0000
     1.0000   1.0000   1.0000   1.0000   1.0000   1.0000   1.0000   1.0000
     1.0000   1.0000   1.0000   1.0000   1.0000   1.0000   1.0000   1.0000
     1.0000   1.0000   1.0000   1.0000   1.0000   1.0000   1.0000   1.0000
     1.0000   1.0000   1.0000   1.0000   1.0000   1.0000   1.0000   1.0000
     1.0000   1.0000   1.0000   1.0000   1.0000   1.0000   0.5000   0.5000
     0.0000   0.0000   0.0000   0.0000   0.0000   0.0000   0.0000   0.0000
     0.0000   0.0000   0.0000   0.0000   0.0000   0.0000   0.0000   0.0000
     0.0000   0.0000   0.0000   0.0000   0.0000   0.0000   0.0000   0.0000

 ------ SPIN DOWN ----------


          k = 0.0000 0.0000 0.0000 ( 24207 PWs)   bands (ev):

    -8.5299  -6.8749  -6.2645  -6.2645  -6.1528  -6.1528  -5.8613  -4.8857
    -4.1184  -4.1184  -4.0891  -4.0891  -4.0083  -4.0018  -4.0018  -3.9249
    -3.8544  -3.8544  -3.3496  -2.9342  -2.6512  -2.6512  -2.0607  -0.3512
    -0.3512  -0.3294  -0.2998  -0.0760   0.1887   0.1887   0.2919   0.2919
     0.3639   0.6168   0.8428   0.8428   0.9849   0.9891   0.9891   1.0442
     1.0449   1.0449   1.3644   1.3644   3.0933   3.9561   3.9561   4.0648
     4.2125   4.2143   4.2143   4.2588   4.2613   4.2613   4.4245   4.4245
     4.4836   4.4836   4.5681   4.6577   4.6581   4.6590   4.6590   4.7647
     4.7647   4.8887   4.9501   4.9501   5.0606   5.2126   5.2126   5.2905
     5.3418   5.3418   5.3778   5.4103   5.4103   6.0308   6.0308   6.0711
     6.6353   6.6353   6.7138   7.0109   7.0260   7.0260   7.5578   8.3416
     8.3416   8.4017   8.4589   8.4589   8.6518   8.6518   8.7797   8.8048
     8.8048   8.8217   8.8707   8.8707   8.8785   9.2655   9.2709   9.2709
     9.6866   9.6866   9.8761   9.8882   9.9094   9.9094   9.9095   9.9509
     9.9509   9.9752   9.9929   9.9929  10.0824  10.0824  10.2871  10.2914
    10.2914  11.1114  12.3434  12.4633  12.4633  14.0442  15.3178  15.3178
    17.3072  17.3498  17.3498  17.4864  17.5457  17.5457  17.8212  17.9042
    17.9042  18.0104  18.0104  18.3698  18.9338  18.9338  18.9688  20.6318
    20.7787  20.7787  20.8269  20.9000  20.9000  20.9894  20.9896  20.9910

     occupation numbers 
     1.0000   1.0000   1.0000   1.0000   1.0000   1.0000   1.0000   1.0000
     1.0000   1.0000   1.0000   1.0000   1.0000   1.0000   1.0000   1.0000
     1.0000   1.0000   1.0000   1.0000   1.0000   1.0000   1.0000   1.0000
     1.0000   1.0000   1.0000   1.0000   1.0000   1.0000   1.0000   1.0000
     1.0000   1.0000   1.0000   1.0000   1.0000   1.0000   1.0000   1.0000
     1.0000   1.0000   1.0000   1.0000   1.0000   1.0000   1.0000   1.0000
     1.0000   1.0000   1.0000   1.0000   1.0000   1.0000   1.0000   1.0000
     1.0000   1.0000   1.0000   1.0000   1.0000   1.0000   1.0000   1.0000
     1.0000   1.0000   1.0000   1.0000   1.0000   1.0000   1.0000   1.0000
     1.0000   1.0000   1.0000   1.0000   1.0000   1.0000   1.0000   1.0000
     1.0000   1.0000   1.0000   1.0000   1.0000   1.0000   1.0000   1.0000
     1.0000   1.0000   1.0000   1.0000   1.0000   1.0000   1.0000   1.0000
     1.0000   1.0000   1.0000   1.0000   1.0000   1.0000   1.0000   1.0000
     1.0000   1.0000   1.0000   1.0000   1.0000   1.0000   1.0000   1.0000
     1.0000   1.0000   1.0000   1.0000   1.0000   1.0000   1.0000   1.0000
     1.0000   1.0000   1.0000   1.0000   1.0000   1.0000   0.5000   0.5000
     0.0000   0.0000   0.0000   0.0000   0.0000   0.0000   0.0000   0.0000
     0.0000   0.0000   0.0000   0.0000   0.0000   0.0000   0.0000   0.0000
     0.0000   0.0000   0.0000   0.0000   0.0000   0.0000   0.0000   0.0000

     the spin up/dw Fermi energies are    15.3202   15.3197 ev

!    total energy              =    -724.39216538 Ry
     Harris-Foulkes estimate   =    -724.39216489 Ry
     estimated scf accuracy    <       0.00000040 Ry

     The total energy is the sum of the following terms:

     one-electron contribution =     232.27853709 Ry
     hartree contribution      =      70.03753042 Ry
     xc contribution           =    -226.60098188 Ry
     ewald contribution        =    -800.10659464 Ry
     smearing contrib. (-TS)   =      -0.00065637 Ry

     total magnetization       =     0.00 Bohr mag/cell
     absolute magnetization    =     0.00 Bohr mag/cell

     convergence has been achieved in   9 iterations

     Writing output data file di.save
 
     init_run     :      1.54s CPU      1.91s WALL (       1 calls)
     electrons    :     10.16s CPU     10.48s WALL (       1 calls)

     Called by init_run:
     wfcinit      :      0.36s CPU      0.39s WALL (       1 calls)
     wfcinit:atom :      0.00s CPU      0.00s WALL (       1 calls)
     wfcinit:wfcr :      0.34s CPU      0.36s WALL (       1 calls)
     potinit      :      0.09s CPU      0.10s WALL (       1 calls)

     Called by electrons:
     c_bands      :      9.15s CPU      9.46s WALL (       9 calls)
     sum_band     :      0.54s CPU      0.54s WALL (       9 calls)
     v_of_rho     :      0.37s CPU      0.37s WALL (      10 calls)
     v_h          :      0.01s CPU      0.01s WALL (      10 calls)
     v_xc         :      0.36s CPU      0.36s WALL (      10 calls)
     mix_rho      :      0.06s CPU      0.06s WALL (       9 calls)

     Called by c_bands:
     init_us_2    :      0.08s CPU      0.09s WALL (      19 calls)
     cegterg      :      8.45s CPU      8.74s WALL (       9 calls)

     Called by sum_band:

     Called by *egterg:
     h_psi        :      4.05s CPU      4.13s WALL (      55 calls)
     g_psi        :      0.02s CPU      0.02s WALL (      45 calls)
     cdiaghg      :      2.62s CPU      2.75s WALL (      54 calls)
     cegterg:over :      0.75s CPU      0.76s WALL (      45 calls)
     cegterg:upda :      0.76s CPU      0.77s WALL (      45 calls)
     cegterg:last :      0.26s CPU      0.26s WALL (       9 calls)
     cdiaghg:chol :      0.21s CPU      0.25s WALL (      54 calls)
     cdiaghg:inve :      0.14s CPU      0.14s WALL (      54 calls)
     cdiaghg:para :      0.21s CPU      0.24s WALL (     108 calls)

     Called by h_psi:
     h_psi:pot    :      4.00s CPU      4.07s WALL (      55 calls)
     h_psi:calbec :      0.87s CPU      0.89s WALL (      55 calls)
     vloc_psi     :      2.24s CPU      2.28s WALL (      55 calls)
     add_vuspsi   :      0.89s CPU      0.90s WALL (      55 calls)

     General routines
     calbec       :      0.87s CPU      0.89s WALL (      55 calls)
     fft          :      0.11s CPU      0.32s WALL (     207 calls)
     fftw         :      2.43s CPU      2.39s WALL (    9168 calls)
 
     Parallel routines
     fft_scatter  :      0.70s CPU      0.71s WALL (    9375 calls)
 
     PWSCF        :    12.35s CPU        15.92s WALL

 
   This run was terminated on:  13:18:37   1Jun2021            

=------------------------------------------------------------------------------=
   JOB DONE.
=------------------------------------------------------------------------------=
