
     Program PWSCF v.6.1 (svn rev. 13369) starts on 12May2020 at 10:28:47 

     This program is part of the open-source Quantum ESPRESSO suite
     for quantum simulation of materials; please cite
         "P. Giannozzi et al., J. Phys.:Condens. Matter 21 395502 (2009);
          URL http://www.quantum-espresso.org", 
     in publications or presentations arising from this work. More details at
     http://www.quantum-espresso.org/quote

     Parallel version (MPI), running on    96 processors
     K-points division:     npool     =       6
     R & G space division:  proc/nbgrp/npool/nimage =      16
     Reading input from scf.in
Warning: card &IONS ignored
Warning: card / ignored

     Current dimensions of program PWSCF are:
     Max number of different atomic species (ntypx) = 10
     Max number of k-points (npk) =  40000
     Max angular momentum in pseudopotentials (lmaxx) =  3

     Subspace diagonalization in iterative solution of the eigenvalue problem:
     a serial algorithm will be used

 
     Parallelization info
     --------------------
     sticks:   dense  smooth     PW     G-vecs:    dense   smooth      PW
     Min         252     252     67                12125    12125    1669
     Max         254     254     68                12129    12129    1672
     Sum        4049    4049   1085               194039   194039   26745
 


     bravais-lattice index     =            1
     lattice parameter (alat)  =      13.4862  a.u.
     unit-cell volume          =    2452.8358 (a.u.)^3
     number of atoms/cell      =           63
     number of atomic types    =            2
     number of electrons       =       254.00
     number of Kohn-Sham states=          152
     kinetic-energy cutoff     =      70.0000  Ry
     charge density cutoff     =     280.0000  Ry
     convergence threshold     =      1.0E-06
     mixing beta               =       0.5000
     number of iterations used =            8  plain     mixing
     Exchange-correlation      = PBE ( 1  4  3  4 0 0)

     celldm(1)=  13.486197  celldm(2)=   0.000000  celldm(3)=   0.000000
     celldm(4)=   0.000000  celldm(5)=   0.000000  celldm(6)=   0.000000

     crystal axes: (cart. coord. in units of alat)
               a(1) = (   1.000000   0.000000   0.000000 )  
               a(2) = (   0.000000   1.000000   0.000000 )  
               a(3) = (   0.000000   0.000000   1.000000 )  

     reciprocal axes: (cart. coord. in units 2 pi/alat)
               b(1) = (  1.000000  0.000000  0.000000 )  
               b(2) = (  0.000000  1.000000  0.000000 )  
               b(3) = (  0.000000  0.000000  1.000000 )  


     PseudoPot. # 1 for C  read from file:
     /home/tjsmart/Pseudo/C_ONCV_PBE-1.0.upf
     MD5 check sum: 72b63e32b2fd29504de26a4901699f60
     Pseudo is Norm-conserving, Zval =  4.0
     Generated using ONCVPSP code by D. R. Hamann
     Using radial grid of 1248 points,  4 beta functions with: 
                l(1) =   0
                l(2) =   0
                l(3) =   1
                l(4) =   1

     PseudoPot. # 2 for N  read from file:
     /home/tjsmart/Pseudo/N_ONCV_PBE-1.0.upf
     MD5 check sum: 09890da6b2972017450f7114a6086fad
     Pseudo is Norm-conserving, Zval =  5.0
     Generated using ONCVPSP code by D. R. Hamann
     Using radial grid of 1058 points,  4 beta functions with: 
                l(1) =   0
                l(2) =   0
                l(3) =   1
                l(4) =   1

     atomic species   valence    mass     pseudopotential
        C              4.00    12.01110     C ( 1.00)
        N              5.00    14.00670     N ( 1.00)

     Starting magnetic structure 
     atomic species   magnetization
        C            0.500
        N            0.500

      6 Sym. Ops. (no inversion) found


                                    s                        frac. trans.

      isym =  1     identity                                     

 cryst.   s( 1) = (     1          0          0      )
                  (     0          1          0      )
                  (     0          0          1      )

 cart.    s( 1) = (  1.0000000  0.0000000  0.0000000 )
                  (  0.0000000  1.0000000  0.0000000 )
                  (  0.0000000  0.0000000  1.0000000 )


      isym =  2     120 deg rotation - cart. axis [-1,-1,-1]     

 cryst.   s( 2) = (     0          0          1      )
                  (     1          0          0      )
                  (     0          1          0      )

 cart.    s( 2) = (  0.0000000  1.0000000  0.0000000 )
                  (  0.0000000  0.0000000  1.0000000 )
                  (  1.0000000  0.0000000  0.0000000 )


      isym =  3     120 deg rotation - cart. axis [1,1,1]        

 cryst.   s( 3) = (     0          1          0      )
                  (     0          0          1      )
                  (     1          0          0      )

 cart.    s( 3) = (  0.0000000  0.0000000  1.0000000 )
                  (  1.0000000  0.0000000  0.0000000 )
                  (  0.0000000  1.0000000  0.0000000 )


      isym =  4     inv. 180 deg rotation - cart. axis [1,-1,0]  

 cryst.   s( 4) = (     0          1          0      )
                  (     1          0          0      )
                  (     0          0          1      )

 cart.    s( 4) = (  0.0000000  1.0000000  0.0000000 )
                  (  1.0000000  0.0000000  0.0000000 )
                  (  0.0000000  0.0000000  1.0000000 )


      isym =  5     inv. 180 deg rotation - cart. axis [-1,0,1]  

 cryst.   s( 5) = (     0          0          1      )
                  (     0          1          0      )
                  (     1          0          0      )

 cart.    s( 5) = (  0.0000000  0.0000000  1.0000000 )
                  (  0.0000000  1.0000000  0.0000000 )
                  (  1.0000000  0.0000000  0.0000000 )


      isym =  6     inv. 180 deg rotation - cart. axis [0,1,-1]  

 cryst.   s( 6) = (     1          0          0      )
                  (     0          0          1      )
                  (     0          1          0      )

 cart.    s( 6) = (  1.0000000  0.0000000  0.0000000 )
                  (  0.0000000  0.0000000  1.0000000 )
                  (  0.0000000  1.0000000  0.0000000 )


     point group C_3v (3m)  
     there are  3 classes
     the character table:

       E     2C3   3s_v 
A_1    1.00  1.00  1.00
A_2    1.00  1.00 -1.00
E      2.00 -1.00  0.00

     the symmetry operations in each class and the name of the first element:

     E        1
          identity                                               
     2C3      2    3
          120 deg rotation - cart. axis [-1,-1,-1]               
     3s_v     4    5    6
          inv. 180 deg rotation - cart. axis [1,-1,0]            

   Cartesian axes

     site n.     atom                  positions (alat units)
         1           C   tau(   1) = (   0.3757311   0.3757311   0.8737048  )
         2           C   tau(   2) = (   0.5000258   0.0001580   0.0001580  )
         3           C   tau(   3) = (   0.5000642  -0.0000239   0.5000642  )
         4           C   tau(   4) = (   0.0001580   0.5000258   0.0001580  )
         5           C   tau(   5) = (  -0.0000239   0.5000642   0.5000642  )
         6           C   tau(   6) = (  -0.0001102  -0.0001102  -0.0001102  )
         7           C   tau(   7) = (   0.0001580   0.0001580   0.5000258  )
         8           C   tau(   8) = (   0.2501920   0.2501920  -0.0012707  )
         9           C   tau(   9) = (   0.2505320   0.2505320   0.4945601  )
        10           C   tau(  10) = (   0.2504401   0.7490137   0.0010230  )
        11           C   tau(  11) = (   0.2528289   0.7476533   0.5015741  )
        12           C   tau(  12) = (   0.7490137   0.2504401   0.0010230  )
        13           C   tau(  13) = (   0.7476533   0.2528289   0.5015741  )
        14           C   tau(  14) = (   0.7496691   0.7496691  -0.0001254  )
        15           C   tau(  15) = (   0.5000642   0.5000642  -0.0000239  )
        16           C   tau(  16) = (   0.7492098   0.7492098   0.4988404  )
        17           C   tau(  17) = (   0.5015741   0.2528289   0.7476533  )
        18           C   tau(  18) = (   0.5015741   0.7476533   0.2528289  )
        19           C   tau(  19) = (   0.4988404   0.7492098   0.7492098  )
        20           C   tau(  20) = (  -0.0012707   0.2501920   0.2501920  )
        21           C   tau(  21) = (   0.0010230   0.2504401   0.7490137  )
        22           C   tau(  22) = (   0.0010230   0.7490137   0.2504401  )
        23           C   tau(  23) = (  -0.0001254   0.7496691   0.7496691  )
        24           C   tau(  24) = (   0.2505320   0.4945601   0.2505320  )
        25           C   tau(  25) = (   0.2528289   0.5015741   0.7476533  )
        26           C   tau(  26) = (   0.2501920  -0.0012707   0.2501920  )
        27           C   tau(  27) = (   0.2504401   0.0010230   0.7490137  )
        28           C   tau(  28) = (   0.7476533   0.5015741   0.2528289  )
        29           C   tau(  29) = (   0.7492098   0.4988404   0.7492098  )
        30           C   tau(  30) = (   0.4945601   0.2505320   0.2505320  )
        31           C   tau(  31) = (   0.7490137   0.0010230   0.2504401  )
        32           C   tau(  32) = (   0.6247337   0.8745453   0.6247337  )
        33           C   tau(  33) = (   0.6345137   0.3680873   0.6345137  )
        34           C   tau(  34) = (   0.3759221   0.8761994   0.8761994  )
        35           C   tau(  35) = (   0.3757311   0.8737048   0.3757311  )
        36           C   tau(  36) = (   0.8761994   0.3759221   0.8761994  )
        37           C   tau(  37) = (   0.8737048   0.3757311   0.3757311  )
        38           C   tau(  38) = (   0.8747396   0.8747396   0.8747396  )
        39           C   tau(  39) = (   0.8761994   0.8761994   0.3759221  )
        40           C   tau(  40) = (   0.1253854   0.1253854   0.8742212  )
        41           C   tau(  41) = (   0.1237552   0.1237552   0.3748651  )
        42           C   tau(  42) = (   0.1244680   0.6245824   0.8758047  )
        43           C   tau(  43) = (   0.1271669   0.6228539   0.3762993  )
        44           C   tau(  44) = (   0.6245824   0.1244680   0.8758047  )
        45           C   tau(  45) = (   0.6228539   0.1271669   0.3762993  )
        46           C   tau(  46) = (   0.6245824   0.8758047   0.1244680  )
        47           C   tau(  47) = (   0.6247337   0.6247337   0.8745453  )
        48           C   tau(  48) = (   0.3748651   0.1237552   0.1237552  )
        49           C   tau(  49) = (   0.3762993   0.1271669   0.6228539  )
        50           C   tau(  50) = (   0.3762993   0.6228539   0.1271669  )
        51           C   tau(  51) = (   0.3680873   0.6345137   0.6345137  )
        52           C   tau(  52) = (   0.8742212   0.1253854   0.1253854  )
        53           C   tau(  53) = (   0.8758047   0.1244680   0.6245824  )
        54           C   tau(  54) = (   0.8758047   0.6245824   0.1244680  )
        55           C   tau(  55) = (   0.8745453   0.6247337   0.6247337  )
        56           C   tau(  56) = (   0.1237552   0.3748651   0.1237552  )
        57           C   tau(  57) = (   0.1271669   0.3762993   0.6228539  )
        58           C   tau(  58) = (   0.1253854   0.8742212   0.1253854  )
        59           C   tau(  59) = (   0.1244680   0.8758047   0.6245824  )
        60           C   tau(  60) = (   0.6228539   0.3762993   0.1271669  )
        61           C   tau(  61) = (   0.6345137   0.6345137   0.3680873  )
        62           C   tau(  62) = (   0.7496691  -0.0001254   0.7496691  )
        63           N   tau(  63) = (   0.3643153   0.3643153   0.3643153  )

   Crystallographic axes

     site n.     atom                  positions (cryst. coord.)
         1           C   tau(   1) = (  0.3757311  0.3757311  0.8737048  )
         2           C   tau(   2) = (  0.5000258  0.0001580  0.0001580  )
         3           C   tau(   3) = (  0.5000642 -0.0000239  0.5000642  )
         4           C   tau(   4) = (  0.0001580  0.5000258  0.0001580  )
         5           C   tau(   5) = ( -0.0000239  0.5000642  0.5000642  )
         6           C   tau(   6) = ( -0.0001102 -0.0001102 -0.0001102  )
         7           C   tau(   7) = (  0.0001580  0.0001580  0.5000258  )
         8           C   tau(   8) = (  0.2501920  0.2501920 -0.0012707  )
         9           C   tau(   9) = (  0.2505320  0.2505320  0.4945601  )
        10           C   tau(  10) = (  0.2504401  0.7490137  0.0010230  )
        11           C   tau(  11) = (  0.2528289  0.7476533  0.5015741  )
        12           C   tau(  12) = (  0.7490137  0.2504401  0.0010230  )
        13           C   tau(  13) = (  0.7476533  0.2528289  0.5015741  )
        14           C   tau(  14) = (  0.7496691  0.7496691 -0.0001254  )
        15           C   tau(  15) = (  0.5000642  0.5000642 -0.0000239  )
        16           C   tau(  16) = (  0.7492098  0.7492098  0.4988404  )
        17           C   tau(  17) = (  0.5015741  0.2528289  0.7476533  )
        18           C   tau(  18) = (  0.5015741  0.7476533  0.2528289  )
        19           C   tau(  19) = (  0.4988404  0.7492098  0.7492098  )
        20           C   tau(  20) = ( -0.0012707  0.2501920  0.2501920  )
        21           C   tau(  21) = (  0.0010230  0.2504401  0.7490137  )
        22           C   tau(  22) = (  0.0010230  0.7490137  0.2504401  )
        23           C   tau(  23) = ( -0.0001254  0.7496691  0.7496691  )
        24           C   tau(  24) = (  0.2505320  0.4945601  0.2505320  )
        25           C   tau(  25) = (  0.2528289  0.5015741  0.7476533  )
        26           C   tau(  26) = (  0.2501920 -0.0012707  0.2501920  )
        27           C   tau(  27) = (  0.2504401  0.0010230  0.7490137  )
        28           C   tau(  28) = (  0.7476533  0.5015741  0.2528289  )
        29           C   tau(  29) = (  0.7492098  0.4988404  0.7492098  )
        30           C   tau(  30) = (  0.4945601  0.2505320  0.2505320  )
        31           C   tau(  31) = (  0.7490137  0.0010230  0.2504401  )
        32           C   tau(  32) = (  0.6247337  0.8745453  0.6247337  )
        33           C   tau(  33) = (  0.6345137  0.3680873  0.6345137  )
        34           C   tau(  34) = (  0.3759221  0.8761994  0.8761994  )
        35           C   tau(  35) = (  0.3757311  0.8737048  0.3757311  )
        36           C   tau(  36) = (  0.8761994  0.3759221  0.8761994  )
        37           C   tau(  37) = (  0.8737048  0.3757311  0.3757311  )
        38           C   tau(  38) = (  0.8747396  0.8747396  0.8747396  )
        39           C   tau(  39) = (  0.8761994  0.8761994  0.3759221  )
        40           C   tau(  40) = (  0.1253854  0.1253854  0.8742212  )
        41           C   tau(  41) = (  0.1237552  0.1237552  0.3748651  )
        42           C   tau(  42) = (  0.1244680  0.6245824  0.8758047  )
        43           C   tau(  43) = (  0.1271669  0.6228539  0.3762993  )
        44           C   tau(  44) = (  0.6245824  0.1244680  0.8758047  )
        45           C   tau(  45) = (  0.6228539  0.1271669  0.3762993  )
        46           C   tau(  46) = (  0.6245824  0.8758047  0.1244680  )
        47           C   tau(  47) = (  0.6247337  0.6247337  0.8745453  )
        48           C   tau(  48) = (  0.3748651  0.1237552  0.1237552  )
        49           C   tau(  49) = (  0.3762993  0.1271669  0.6228539  )
        50           C   tau(  50) = (  0.3762993  0.6228539  0.1271669  )
        51           C   tau(  51) = (  0.3680873  0.6345137  0.6345137  )
        52           C   tau(  52) = (  0.8742212  0.1253854  0.1253854  )
        53           C   tau(  53) = (  0.8758047  0.1244680  0.6245824  )
        54           C   tau(  54) = (  0.8758047  0.6245824  0.1244680  )
        55           C   tau(  55) = (  0.8745453  0.6247337  0.6247337  )
        56           C   tau(  56) = (  0.1237552  0.3748651  0.1237552  )
        57           C   tau(  57) = (  0.1271669  0.3762993  0.6228539  )
        58           C   tau(  58) = (  0.1253854  0.8742212  0.1253854  )
        59           C   tau(  59) = (  0.1244680  0.8758047  0.6245824  )
        60           C   tau(  60) = (  0.6228539  0.3762993  0.1271669  )
        61           C   tau(  61) = (  0.6345137  0.6345137  0.3680873  )
        62           C   tau(  62) = (  0.7496691 -0.0001254  0.7496691  )
        63           N   tau(  63) = (  0.3643153  0.3643153  0.3643153  )

     number of k points=     6
                       cart. coord. in units 2pi/alat
        k(    1) = (   0.0000000   0.0000000   0.0000000), wk =   0.0370370
        k(    2) = (   0.0000000   0.0000000   0.3333333), wk =   0.2222222
        k(    3) = (   0.0000000   0.3333333   0.3333333), wk =   0.2222222
        k(    4) = (   0.3333333   0.3333333   0.3333333), wk =   0.0740741
        k(    5) = (  -0.3333333   0.0000000   0.3333333), wk =   0.2222222
        k(    6) = (   0.3333333  -0.3333333   0.3333333), wk =   0.2222222

                       cryst. coord.
        k(    1) = (   0.0000000   0.0000000   0.0000000), wk =   0.0370370
        k(    2) = (   0.0000000   0.0000000   0.3333333), wk =   0.2222222
        k(    3) = (   0.0000000   0.3333333   0.3333333), wk =   0.2222222
        k(    4) = (   0.3333333   0.3333333   0.3333333), wk =   0.0740741
        k(    5) = (  -0.3333333   0.0000000   0.3333333), wk =   0.2222222
        k(    6) = (   0.3333333  -0.3333333   0.3333333), wk =   0.2222222

     Dense  grid:   194039 G-vectors     FFT dimensions: (  72,  72,  72)

     Occupations read from input 

      Spin-up

        1.0000   1.0000   1.0000   1.0000   1.0000   1.0000   1.0000   1.0000
        1.0000   1.0000   1.0000   1.0000   1.0000   1.0000   1.0000   1.0000
        1.0000   1.0000   1.0000   1.0000   1.0000   1.0000   1.0000   1.0000
        1.0000   1.0000   1.0000   1.0000   1.0000   1.0000   1.0000   1.0000
        1.0000   1.0000   1.0000   1.0000   1.0000   1.0000   1.0000   1.0000
        1.0000   1.0000   1.0000   1.0000   1.0000   1.0000   1.0000   1.0000
        1.0000   1.0000   1.0000   1.0000   1.0000   1.0000   1.0000   1.0000
        1.0000   1.0000   1.0000   1.0000   1.0000   1.0000   1.0000   1.0000
        1.0000   1.0000   1.0000   1.0000   1.0000   1.0000   1.0000   1.0000
        1.0000   1.0000   1.0000   1.0000   1.0000   1.0000   1.0000   1.0000
        1.0000   1.0000   1.0000   1.0000   1.0000   1.0000   1.0000   1.0000
        1.0000   1.0000   1.0000   1.0000   1.0000   1.0000   1.0000   1.0000
        1.0000   1.0000   1.0000   1.0000   1.0000   1.0000   1.0000   1.0000
        1.0000   1.0000   1.0000   1.0000   1.0000   1.0000   1.0000   1.0000
        1.0000   1.0000   1.0000   1.0000   1.0000   1.0000   1.0000   1.0000
        1.0000   1.0000   1.0000   1.0000   1.0000   1.0000   1.0000   1.0000
        0.0000   0.0000   0.0000   0.0000   0.0000   0.0000   0.0000   0.0000
        0.0000   0.0000   0.0000   0.0000   0.0000   0.0000   0.0000   0.0000
        0.0000   0.0000   0.0000   0.0000   0.0000   0.0000   0.0000   0.0000

      Spin-down

        1.0000   1.0000   1.0000   1.0000   1.0000   1.0000   1.0000   1.0000
        1.0000   1.0000   1.0000   1.0000   1.0000   1.0000   1.0000   1.0000
        1.0000   1.0000   1.0000   1.0000   1.0000   1.0000   1.0000   1.0000
        1.0000   1.0000   1.0000   1.0000   1.0000   1.0000   1.0000   1.0000
        1.0000   1.0000   1.0000   1.0000   1.0000   1.0000   1.0000   1.0000
        1.0000   1.0000   1.0000   1.0000   1.0000   1.0000   1.0000   1.0000
        1.0000   1.0000   1.0000   1.0000   1.0000   1.0000   1.0000   1.0000
        1.0000   1.0000   1.0000   1.0000   1.0000   1.0000   1.0000   1.0000
        1.0000   1.0000   1.0000   1.0000   1.0000   1.0000   1.0000   1.0000
        1.0000   1.0000   1.0000   1.0000   1.0000   1.0000   1.0000   1.0000
        1.0000   1.0000   1.0000   1.0000   1.0000   1.0000   1.0000   1.0000
        1.0000   1.0000   1.0000   1.0000   1.0000   1.0000   1.0000   1.0000
        1.0000   1.0000   1.0000   1.0000   1.0000   1.0000   1.0000   1.0000
        1.0000   1.0000   1.0000   1.0000   1.0000   1.0000   1.0000   1.0000
        1.0000   1.0000   1.0000   1.0000   1.0000   1.0000   1.0000   1.0000
        1.0000   1.0000   1.0000   1.0000   1.0000   0.0000   1.0000   0.0000
        0.0000   0.0000   0.0000   0.0000   0.0000   0.0000   0.0000   0.0000
        0.0000   0.0000   0.0000   0.0000   0.0000   0.0000   0.0000   0.0000
        0.0000   0.0000   0.0000   0.0000   0.0000   0.0000   0.0000   0.0000

     Estimated max dynamical RAM per process >      60.23MB

     Estimated total allocated dynamical RAM >    5782.56MB
     Generating pointlists ...
     new r_m :   0.0854 (alat units)  1.1517 (a.u.) for type    1
     new r_m :   0.0854 (alat units)  1.1517 (a.u.) for type    2

     Initial potential from superposition of free atoms

     starting charge  252.99722, renormalised to  254.00000
     Starting wfc are  252 randomized atomic wfcs

     total cpu time spent up to now is        3.7 secs

     per-process dynamical memory:    59.5 Mb

     Self-consistent Calculation

     iteration #  1     ecut=    70.00 Ry     beta=0.50
     Davidson diagonalization with overlap
     ethr =  1.00E-02,  avg # of iterations =  3.0

     total cpu time spent up to now is        6.0 secs

     total energy              =    -722.44315372 Ry
     Harris-Foulkes estimate   =    -717.54847139 Ry
     estimated scf accuracy    <       6.66319173 Ry

     total magnetization       =     2.00 Bohr mag/cell
     absolute magnetization    =     3.67 Bohr mag/cell

     iteration #  2     ecut=    70.00 Ry     beta=0.50
     Davidson diagonalization with overlap
     ethr =  2.62E-03,  avg # of iterations =  2.0

     total cpu time spent up to now is        7.4 secs

     total energy              =    -724.24189316 Ry
     Harris-Foulkes estimate   =    -722.83389973 Ry
     estimated scf accuracy    <       1.48254233 Ry

     total magnetization       =     2.00 Bohr mag/cell
     absolute magnetization    =     2.51 Bohr mag/cell

     iteration #  3     ecut=    70.00 Ry     beta=0.50
     Davidson diagonalization with overlap
     ethr =  5.84E-04,  avg # of iterations =  7.0

     total cpu time spent up to now is       10.7 secs

     total energy              =    -724.52303216 Ry
     Harris-Foulkes estimate   =    -724.56833197 Ry
     estimated scf accuracy    <       0.74750990 Ry

     total magnetization       =     2.00 Bohr mag/cell
     absolute magnetization    =     2.14 Bohr mag/cell

     iteration #  4     ecut=    70.00 Ry     beta=0.50
     Davidson diagonalization with overlap
     ethr =  2.94E-04,  avg # of iterations =  6.1

     total cpu time spent up to now is       13.4 secs

     total energy              =    -724.67489532 Ry
     Harris-Foulkes estimate   =    -724.66395213 Ry
     estimated scf accuracy    <       0.02929262 Ry

     total magnetization       =     2.00 Bohr mag/cell
     absolute magnetization    =     2.14 Bohr mag/cell

     iteration #  5     ecut=    70.00 Ry     beta=0.50
     Davidson diagonalization with overlap
     ethr =  1.15E-05,  avg # of iterations = 10.6

     total cpu time spent up to now is       18.6 secs

     total energy              =    -724.68347519 Ry
     Harris-Foulkes estimate   =    -724.68308284 Ry
     estimated scf accuracy    <       0.00637678 Ry

     total magnetization       =     2.00 Bohr mag/cell
     absolute magnetization    =     2.15 Bohr mag/cell

     iteration #  6     ecut=    70.00 Ry     beta=0.50
     Davidson diagonalization with overlap
     c_bands:  1 eigenvalues not converged
     ethr =  2.51E-06,  avg # of iterations =  9.1

     total cpu time spent up to now is       23.6 secs

     total energy              =    -724.68475177 Ry
     Harris-Foulkes estimate   =    -724.68483129 Ry
     estimated scf accuracy    <       0.00066157 Ry

     total magnetization       =     2.00 Bohr mag/cell
     absolute magnetization    =     2.16 Bohr mag/cell

     iteration #  7     ecut=    70.00 Ry     beta=0.50
     Davidson diagonalization with overlap
     ethr =  2.60E-07,  avg # of iterations =  3.4

     total cpu time spent up to now is       25.6 secs

     total energy              =    -724.68496414 Ry
     Harris-Foulkes estimate   =    -724.68493707 Ry
     estimated scf accuracy    <       0.00008867 Ry

     total magnetization       =     2.00 Bohr mag/cell
     absolute magnetization    =     2.17 Bohr mag/cell

     iteration #  8     ecut=    70.00 Ry     beta=0.50
     Davidson diagonalization with overlap
     ethr =  3.49E-08,  avg # of iterations =  3.4

     total cpu time spent up to now is       27.8 secs

     total energy              =    -724.68501053 Ry
     Harris-Foulkes estimate   =    -724.68499257 Ry
     estimated scf accuracy    <       0.00001817 Ry

     total magnetization       =     2.00 Bohr mag/cell
     absolute magnetization    =     2.18 Bohr mag/cell

     iteration #  9     ecut=    70.00 Ry     beta=0.50
     Davidson diagonalization with overlap
     ethr =  7.15E-09,  avg # of iterations =  3.9

     total cpu time spent up to now is       30.0 secs

     total energy              =    -724.68502385 Ry
     Harris-Foulkes estimate   =    -724.68501460 Ry
     estimated scf accuracy    <       0.00000518 Ry

     total magnetization       =     2.00 Bohr mag/cell
     absolute magnetization    =     2.19 Bohr mag/cell

     iteration # 10     ecut=    70.00 Ry     beta=0.50
     Davidson diagonalization with overlap
     ethr =  2.04E-09,  avg # of iterations =  4.8
 
     Magnetic moment per site:
     atom:    1    charge:    1.8225    magn:    0.0067    constr:    0.0000
     atom:    2    charge:    1.8382    magn:    0.0080    constr:    0.0000
     atom:    3    charge:    1.8275    magn:   -0.0013    constr:    0.0000
     atom:    4    charge:    1.8382    magn:    0.0080    constr:    0.0000
     atom:    5    charge:    1.8275    magn:   -0.0013    constr:    0.0000
     atom:    6    charge:    1.8171    magn:   -0.0000    constr:    0.0000
     atom:    7    charge:    1.8382    magn:    0.0080    constr:    0.0000
     atom:    8    charge:    1.8215    magn:   -0.0008    constr:    0.0000
     atom:    9    charge:    1.8028    magn:    0.0001    constr:    0.0000
     atom:   10    charge:    1.8151    magn:   -0.0014    constr:    0.0000
     atom:   11    charge:    1.8257    magn:   -0.0025    constr:    0.0000
     atom:   12    charge:    1.8151    magn:   -0.0014    constr:    0.0000
     atom:   13    charge:    1.8257    magn:   -0.0025    constr:    0.0000
     atom:   14    charge:    1.8213    magn:   -0.0015    constr:    0.0000
     atom:   15    charge:    1.8275    magn:   -0.0013    constr:    0.0000
     atom:   16    charge:    1.8288    magn:    0.0009    constr:    0.0000
     atom:   17    charge:    1.8257    magn:   -0.0025    constr:    0.0000
     atom:   18    charge:    1.8257    magn:   -0.0025    constr:    0.0000
     atom:   19    charge:    1.8288    magn:    0.0009    constr:    0.0000
     atom:   20    charge:    1.8215    magn:   -0.0008    constr:    0.0000
     atom:   21    charge:    1.8151    magn:   -0.0014    constr:    0.0000
     atom:   22    charge:    1.8151    magn:   -0.0014    constr:    0.0000
     atom:   23    charge:    1.8213    magn:   -0.0015    constr:    0.0000
     atom:   24    charge:    1.8028    magn:    0.0001    constr:    0.0000
     atom:   25    charge:    1.8257    magn:   -0.0025    constr:    0.0000
     atom:   26    charge:    1.8215    magn:   -0.0008    constr:    0.0000
     atom:   27    charge:    1.8151    magn:   -0.0014    constr:    0.0000
     atom:   28    charge:    1.8257    magn:   -0.0025    constr:    0.0000
     atom:   29    charge:    1.8288    magn:    0.0009    constr:    0.0000
     atom:   30    charge:    1.8028    magn:    0.0001    constr:    0.0000
     atom:   31    charge:    1.8151    magn:   -0.0014    constr:    0.0000
     atom:   32    charge:    1.8214    magn:    0.0060    constr:    0.0000
     atom:   33    charge:    1.8439    magn:    0.2002    constr:    0.0000
     atom:   34    charge:    1.8198    magn:    0.0165    constr:    0.0000
     atom:   35    charge:    1.8225    magn:    0.0067    constr:    0.0000
     atom:   36    charge:    1.8198    magn:    0.0165    constr:    0.0000
     atom:   37    charge:    1.8225    magn:    0.0067    constr:    0.0000
     atom:   38    charge:    1.8228    magn:    0.0050    constr:    0.0000
     atom:   39    charge:    1.8198    magn:    0.0165    constr:    0.0000
     atom:   40    charge:    1.8242    magn:    0.0040    constr:    0.0000
     atom:   41    charge:    1.8305    magn:    0.0095    constr:    0.0000
     atom:   42    charge:    1.8202    magn:    0.0173    constr:    0.0000
     atom:   43    charge:    1.8173    magn:    0.0046    constr:    0.0000
     atom:   44    charge:    1.8202    magn:    0.0173    constr:    0.0000
     atom:   45    charge:    1.8173    magn:    0.0046    constr:    0.0000
     atom:   46    charge:    1.8202    magn:    0.0173    constr:    0.0000
     atom:   47    charge:    1.8214    magn:    0.0060    constr:    0.0000
     atom:   48    charge:    1.8305    magn:    0.0095    constr:    0.0000
     atom:   49    charge:    1.8173    magn:    0.0046    constr:    0.0000
     atom:   50    charge:    1.8173    magn:    0.0046    constr:    0.0000
     atom:   51    charge:    1.8439    magn:    0.2002    constr:    0.0000
     atom:   52    charge:    1.8242    magn:    0.0040    constr:    0.0000
     atom:   53    charge:    1.8202    magn:    0.0173    constr:    0.0000
     atom:   54    charge:    1.8202    magn:    0.0173    constr:    0.0000
     atom:   55    charge:    1.8214    magn:    0.0060    constr:    0.0000
     atom:   56    charge:    1.8305    magn:    0.0095    constr:    0.0000
     atom:   57    charge:    1.8173    magn:    0.0046    constr:    0.0000
     atom:   58    charge:    1.8242    magn:    0.0040    constr:    0.0000
     atom:   59    charge:    1.8202    magn:    0.0173    constr:    0.0000
     atom:   60    charge:    1.8173    magn:    0.0046    constr:    0.0000
     atom:   61    charge:    1.8439    magn:    0.2002    constr:    0.0000
     atom:   62    charge:    1.8213    magn:   -0.0015    constr:    0.0000
     atom:   63    charge:    2.8903    magn:    0.1293    constr:    0.0000

     total cpu time spent up to now is       32.7 secs

     End of self-consistent calculation

 ------ SPIN UP ------------


          k = 0.0000 0.0000 0.0000 ( 24207 PWs)   bands (ev):

    -8.6545  -7.2551  -6.2851  -6.2851  -6.1493  -6.1493  -5.9067  -5.0412
    -4.1549  -4.1549  -4.1335  -4.1335  -4.0209  -4.0209  -3.9706  -3.9616
    -3.8561  -3.8561  -3.3758  -2.9889  -2.6771  -2.6771  -2.1106  -0.4205
    -0.4205  -0.3638  -0.3375  -0.1681   0.1426   0.1426   0.2610   0.2610
     0.3483   0.5750   0.7742   0.7742   0.9706   0.9706   1.0038   1.0088
     1.0088   1.0831   1.3269   1.3269   2.9925   3.7423   3.7423   3.9745
     4.1948   4.2109   4.2109   4.2155   4.2560   4.2560   4.4061   4.4061
     4.4475   4.4475   4.5873   4.6202   4.6202   4.6228   4.6600   4.7222
     4.7222   4.8544   4.9194   4.9194   5.0031   5.1904   5.1904   5.2335
     5.3182   5.3182   5.3678   5.4136   5.4136   5.9818   5.9818   6.0012
     6.5650   6.5650   6.7087   6.8899   6.9945   6.9945   7.4331   8.2279
     8.2279   8.3492   8.4410   8.4410   8.5985   8.5985   8.7570   8.7785
     8.7785   8.7789   8.8483   8.8483   8.8876   9.2283   9.2294   9.2294
     9.6324   9.6324   9.8569   9.8569   9.8607   9.8972   9.9328   9.9328
     9.9372   9.9477   9.9591   9.9591  10.0943  10.0943  10.2457  10.2457
    10.3133  10.5263  12.0812  12.3986  12.3986  13.4758  14.9520  14.9520
    17.2328  17.3151  17.3151  17.4855  17.5073  17.5073  17.8112  17.8690
    17.8690  17.9587  17.9587  18.3023  18.8525  18.8525  18.9132  20.5339
    20.7380  20.7380  20.8010  20.8681  20.8682  20.9552  20.9553  20.9841

     occupation numbers 
     1.0000   1.0000   1.0000   1.0000   1.0000   1.0000   1.0000   1.0000
     1.0000   1.0000   1.0000   1.0000   1.0000   1.0000   1.0000   1.0000
     1.0000   1.0000   1.0000   1.0000   1.0000   1.0000   1.0000   1.0000
     1.0000   1.0000   1.0000   1.0000   1.0000   1.0000   1.0000   1.0000
     1.0000   1.0000   1.0000   1.0000   1.0000   1.0000   1.0000   1.0000
     1.0000   1.0000   1.0000   1.0000   1.0000   1.0000   1.0000   1.0000
     1.0000   1.0000   1.0000   1.0000   1.0000   1.0000   1.0000   1.0000
     1.0000   1.0000   1.0000   1.0000   1.0000   1.0000   1.0000   1.0000
     1.0000   1.0000   1.0000   1.0000   1.0000   1.0000   1.0000   1.0000
     1.0000   1.0000   1.0000   1.0000   1.0000   1.0000   1.0000   1.0000
     1.0000   1.0000   1.0000   1.0000   1.0000   1.0000   1.0000   1.0000
     1.0000   1.0000   1.0000   1.0000   1.0000   1.0000   1.0000   1.0000
     1.0000   1.0000   1.0000   1.0000   1.0000   1.0000   1.0000   1.0000
     1.0000   1.0000   1.0000   1.0000   1.0000   1.0000   1.0000   1.0000
     1.0000   1.0000   1.0000   1.0000   1.0000   1.0000   1.0000   1.0000
     1.0000   1.0000   1.0000   1.0000   1.0000   1.0000   1.0000   1.0000
     0.0000   0.0000   0.0000   0.0000   0.0000   0.0000   0.0000   0.0000
     0.0000   0.0000   0.0000   0.0000   0.0000   0.0000   0.0000   0.0000
     0.0000   0.0000   0.0000   0.0000   0.0000   0.0000   0.0000   0.0000

          k = 0.0000 0.0000 0.3333 ( 24280 PWs)   bands (ev):

    -8.4532  -7.6464  -6.7620  -6.0424  -5.9106  -5.8292  -5.5213  -5.2937
    -5.1487  -5.0035  -4.5422  -4.1577  -3.8143  -3.8085  -3.6841  -3.4537
    -3.2050  -3.1491  -2.9333  -2.6222  -2.5041  -2.3647  -2.3342  -1.7999
    -0.8935  -0.6982  -0.5647  -0.3610   0.1245   0.1972   0.3602   0.4102
     0.4763   0.5536   0.5621   0.6612   0.7212   0.7359   0.9966   1.4547
     1.9566   2.0004   2.1683   2.1849   2.4065   2.4726   2.4732   2.7448
     2.9318   2.9914   3.1515   3.1797   3.8442   3.9161   4.0494   4.0676
     4.2909   4.3289   4.4781   4.5338   5.0106   5.0682   5.1092   5.2014
     5.2043   5.5558   5.5947   5.6992   5.7629   6.0287   6.0786   6.1588
     6.1957   6.3090   6.3697   6.4635   6.5085   6.5754   6.6131   6.7307
     6.7726   6.8854   6.9080   6.9321   7.1399   7.1485   7.1783   7.2740
     7.3696   7.4742   7.6615   7.7614   7.8151   8.0633   8.1129   8.2782
     8.3173   8.4491   8.6153   8.7031   8.7641   9.0521   9.1791   9.3319
     9.3599   9.6075   9.6383   9.7030   9.8109   9.9135   9.9320   9.9412
     9.9573  10.0483  10.0701  10.1207  10.2091  10.2559  10.2665  10.3510
    10.3842  11.0206  11.6675  11.6954  11.9316  13.1377  14.6363  14.7972
    17.1516  17.2921  17.9396  18.2633  18.3295  18.4844  18.5006  18.5871
    18.8090  18.8257  18.9610  19.0618  19.1752  19.7921  19.8396  20.4143
    20.6330  20.6515  20.7740  20.7911  20.8201  20.8492  20.9002  20.9338

     occupation numbers 
     1.0000   1.0000   1.0000   1.0000   1.0000   1.0000   1.0000   1.0000
     1.0000   1.0000   1.0000   1.0000   1.0000   1.0000   1.0000   1.0000
     1.0000   1.0000   1.0000   1.0000   1.0000   1.0000   1.0000   1.0000
     1.0000   1.0000   1.0000   1.0000   1.0000   1.0000   1.0000   1.0000
     1.0000   1.0000   1.0000   1.0000   1.0000   1.0000   1.0000   1.0000
     1.0000   1.0000   1.0000   1.0000   1.0000   1.0000   1.0000   1.0000
     1.0000   1.0000   1.0000   1.0000   1.0000   1.0000   1.0000   1.0000
     1.0000   1.0000   1.0000   1.0000   1.0000   1.0000   1.0000   1.0000
     1.0000   1.0000   1.0000   1.0000   1.0000   1.0000   1.0000   1.0000
     1.0000   1.0000   1.0000   1.0000   1.0000   1.0000   1.0000   1.0000
     1.0000   1.0000   1.0000   1.0000   1.0000   1.0000   1.0000   1.0000
     1.0000   1.0000   1.0000   1.0000   1.0000   1.0000   1.0000   1.0000
     1.0000   1.0000   1.0000   1.0000   1.0000   1.0000   1.0000   1.0000
     1.0000   1.0000   1.0000   1.0000   1.0000   1.0000   1.0000   1.0000
     1.0000   1.0000   1.0000   1.0000   1.0000   1.0000   1.0000   1.0000
     1.0000   1.0000   1.0000   1.0000   1.0000   1.0000   1.0000   1.0000
     0.0000   0.0000   0.0000   0.0000   0.0000   0.0000   0.0000   0.0000
     0.0000   0.0000   0.0000   0.0000   0.0000   0.0000   0.0000   0.0000
     0.0000   0.0000   0.0000   0.0000   0.0000   0.0000   0.0000   0.0000

          k = 0.0000 0.3333 0.3333 ( 24236 PWs)   bands (ev):

    -8.2793  -7.4989  -7.2221  -6.6280  -6.0227  -5.6725  -5.3762  -5.0103
    -4.9814  -4.8617  -4.5154  -4.2505  -4.2206  -3.9362  -3.5709  -3.5258
    -2.8257  -2.3848  -2.3470  -2.3150  -2.1930  -2.1909  -2.0432  -1.8879
    -1.4795  -1.3310  -1.1023  -0.9155  -0.5636  -0.0726   0.0502   0.1331
     0.1664   0.4617   0.6691   1.1751   1.1885   1.3257   1.3619   1.3905
     1.4257   1.4691   1.9427   2.0518   2.1180   2.3828   2.7146   2.8092
     2.9558   3.4710   3.6322   3.6373   3.7593   3.8140   3.9598   4.0405
     4.1240   4.5292   4.6336   4.7859   5.0006   5.0430   5.1394   5.2932
     5.3084   5.5792   5.6246   5.6744   5.7317   5.9044   5.9984   6.0659
     6.1480   6.2368   6.2897   6.4709   6.5354   6.5899   6.6554   6.8325
     6.9253   6.9531   7.0017   7.0619   7.2193   7.2661   7.4773   7.6618
     7.9231   7.9325   8.0543   8.0606   8.1207   8.2329   8.2685   8.3068
     8.3661   8.4122   8.5212   8.6411   8.6702   8.7081   8.8393   8.8878
     9.0966   9.1772   9.2365   9.3054   9.4630   9.4663   9.5432   9.6474
     9.7138   9.7751   9.9087  10.0383  10.0651  10.1448  10.3661  10.6459
    10.9774  11.2005  11.5535  11.5591  12.2069  12.9070  14.5580  14.8792
    18.0158  18.1679  18.1976  18.2987  18.3489  18.7917  18.8541  18.9653
    19.1633  19.2030  19.4348  19.4805  19.6818  19.8010  19.9577  19.9904
    20.1760  20.4141  20.4688  20.4931  20.5541  20.5828  20.6106  20.6279

     occupation numbers 
     1.0000   1.0000   1.0000   1.0000   1.0000   1.0000   1.0000   1.0000
     1.0000   1.0000   1.0000   1.0000   1.0000   1.0000   1.0000   1.0000
     1.0000   1.0000   1.0000   1.0000   1.0000   1.0000   1.0000   1.0000
     1.0000   1.0000   1.0000   1.0000   1.0000   1.0000   1.0000   1.0000
     1.0000   1.0000   1.0000   1.0000   1.0000   1.0000   1.0000   1.0000
     1.0000   1.0000   1.0000   1.0000   1.0000   1.0000   1.0000   1.0000
     1.0000   1.0000   1.0000   1.0000   1.0000   1.0000   1.0000   1.0000
     1.0000   1.0000   1.0000   1.0000   1.0000   1.0000   1.0000   1.0000
     1.0000   1.0000   1.0000   1.0000   1.0000   1.0000   1.0000   1.0000
     1.0000   1.0000   1.0000   1.0000   1.0000   1.0000   1.0000   1.0000
     1.0000   1.0000   1.0000   1.0000   1.0000   1.0000   1.0000   1.0000
     1.0000   1.0000   1.0000   1.0000   1.0000   1.0000   1.0000   1.0000
     1.0000   1.0000   1.0000   1.0000   1.0000   1.0000   1.0000   1.0000
     1.0000   1.0000   1.0000   1.0000   1.0000   1.0000   1.0000   1.0000
     1.0000   1.0000   1.0000   1.0000   1.0000   1.0000   1.0000   1.0000
     1.0000   1.0000   1.0000   1.0000   1.0000   1.0000   1.0000   1.0000
     0.0000   0.0000   0.0000   0.0000   0.0000   0.0000   0.0000   0.0000
     0.0000   0.0000   0.0000   0.0000   0.0000   0.0000   0.0000   0.0000
     0.0000   0.0000   0.0000   0.0000   0.0000   0.0000   0.0000   0.0000

          k = 0.3333 0.3333 0.3333 ( 24303 PWs)   bands (ev):

    -8.1362  -7.3253  -6.9750  -6.9750  -6.3529  -6.2129  -6.2129  -5.4757
    -4.2993  -4.0296  -4.0296  -3.5865  -3.3874  -3.3874  -3.3622  -3.3622
    -3.2676  -2.9118  -2.6638  -2.6638  -1.9556  -1.9347  -1.9347  -1.5467
    -1.4618  -1.4618  -1.3919  -1.3919  -1.2982  -1.2100  -1.2100   0.0348
     0.8397   0.8397   0.9346   0.9676   0.9676   1.2640   1.8210   1.8210
     1.8695   1.8852   1.9864   1.9864   2.5534   2.5534   2.5875   2.7261
     2.7404   2.7404   3.1283   3.1283   3.5222   4.0559   4.2949   4.2949
     4.7845   4.8636   4.8636   4.9746   5.0857   5.0857   5.1336   5.2939
     5.2939   5.3882   5.4865   5.4865   5.5302   5.5302   5.5768   6.3337
     6.6495   6.6495   6.9619   6.9743   7.0141   7.0141   7.0968   7.0968
     7.2027   7.2027   7.2468   7.2540   7.2540   7.2618   7.3690   7.3690
     7.3969   7.4736   7.7245   7.7245   7.9079   7.9079   7.9604   8.0187
     8.1921   8.1921   8.2884   8.2884   8.3130   8.4592   8.4604   8.4604
     8.6826   8.6826   8.7373   9.0863   9.0909   9.5269   9.5269   9.7667
     9.7667  10.4634  10.4777  10.4777  10.5342  10.9474  10.9474  11.0789
    11.2720  11.2720  11.3252  11.6486  11.6486  12.7961  14.8586  14.8586
    18.0458  18.2190  18.2190  18.4533  18.6278  18.6278  19.2063  19.3605
    19.3605  19.5470  19.5470  19.5825  19.6225  19.6225  19.6717  19.7399
    19.7399  19.8603  19.9117  19.9118  19.9921  19.9922  20.0330  20.1685

     occupation numbers 
     1.0000   1.0000   1.0000   1.0000   1.0000   1.0000   1.0000   1.0000
     1.0000   1.0000   1.0000   1.0000   1.0000   1.0000   1.0000   1.0000
     1.0000   1.0000   1.0000   1.0000   1.0000   1.0000   1.0000   1.0000
     1.0000   1.0000   1.0000   1.0000   1.0000   1.0000   1.0000   1.0000
     1.0000   1.0000   1.0000   1.0000   1.0000   1.0000   1.0000   1.0000
     1.0000   1.0000   1.0000   1.0000   1.0000   1.0000   1.0000   1.0000
     1.0000   1.0000   1.0000   1.0000   1.0000   1.0000   1.0000   1.0000
     1.0000   1.0000   1.0000   1.0000   1.0000   1.0000   1.0000   1.0000
     1.0000   1.0000   1.0000   1.0000   1.0000   1.0000   1.0000   1.0000
     1.0000   1.0000   1.0000   1.0000   1.0000   1.0000   1.0000   1.0000
     1.0000   1.0000   1.0000   1.0000   1.0000   1.0000   1.0000   1.0000
     1.0000   1.0000   1.0000   1.0000   1.0000   1.0000   1.0000   1.0000
     1.0000   1.0000   1.0000   1.0000   1.0000   1.0000   1.0000   1.0000
     1.0000   1.0000   1.0000   1.0000   1.0000   1.0000   1.0000   1.0000
     1.0000   1.0000   1.0000   1.0000   1.0000   1.0000   1.0000   1.0000
     1.0000   1.0000   1.0000   1.0000   1.0000   1.0000   1.0000   1.0000
     0.0000   0.0000   0.0000   0.0000   0.0000   0.0000   0.0000   0.0000
     0.0000   0.0000   0.0000   0.0000   0.0000   0.0000   0.0000   0.0000
     0.0000   0.0000   0.0000   0.0000   0.0000   0.0000   0.0000   0.0000

          k =-0.3333 0.0000 0.3333 ( 24236 PWs)   bands (ev):

    -8.2668  -7.5977  -7.1025  -6.6188  -6.0746  -5.6797  -5.3962  -5.0497
    -4.9297  -4.7502  -4.5379  -4.3209  -4.2265  -4.0501  -3.6003  -3.3360
    -2.8091  -2.4377  -2.3792  -2.2792  -2.2088  -2.1544  -2.0971  -1.6763
    -1.6282  -1.3197  -1.1161  -1.0068  -0.5920  -0.0345   0.0565   0.1072
     0.2808   0.4908   0.8818   1.0176   1.1694   1.2059   1.2379   1.3803
     1.4878   1.5824   1.8474   1.8753   2.1274   2.5816   2.6476   2.8663
     2.9556   3.4505   3.6201   3.7022   3.7494   3.9082   4.0051   4.1253
     4.1653   4.3794   4.5438   4.7818   4.9526   4.9808   5.1660   5.2444
     5.4028   5.5483   5.6214   5.6873   5.7854   5.9895   6.0706   6.1246
     6.1723   6.2315   6.2764   6.3943   6.4512   6.6156   6.6284   6.7903
     6.8821   6.9603   7.0179   7.0923   7.2209   7.3613   7.4819   7.6406
     7.8172   7.8626   7.9430   8.0754   8.1721   8.2082   8.2706   8.2758
     8.3609   8.4344   8.5468   8.5806   8.7399   8.7545   8.8971   8.9588
     9.0653   9.1279   9.2233   9.3188   9.4246   9.4853   9.5194   9.6633
     9.7181   9.7579   9.9469  10.0364  10.0773  10.1000  10.4980  10.7289
    10.8866  11.1130  11.4464  11.5720  12.1882  13.2108  14.4796  14.7637
    18.0047  18.1797  18.2530  18.3047  18.3505  18.7868  18.9177  19.0880
    19.0990  19.2622  19.3222  19.4756  19.6874  19.8212  19.8629  19.9999
    20.2210  20.3298  20.3974  20.5047  20.5354  20.5816  20.6373  20.6790

     occupation numbers 
     1.0000   1.0000   1.0000   1.0000   1.0000   1.0000   1.0000   1.0000
     1.0000   1.0000   1.0000   1.0000   1.0000   1.0000   1.0000   1.0000
     1.0000   1.0000   1.0000   1.0000   1.0000   1.0000   1.0000   1.0000
     1.0000   1.0000   1.0000   1.0000   1.0000   1.0000   1.0000   1.0000
     1.0000   1.0000   1.0000   1.0000   1.0000   1.0000   1.0000   1.0000
     1.0000   1.0000   1.0000   1.0000   1.0000   1.0000   1.0000   1.0000
     1.0000   1.0000   1.0000   1.0000   1.0000   1.0000   1.0000   1.0000
     1.0000   1.0000   1.0000   1.0000   1.0000   1.0000   1.0000   1.0000
     1.0000   1.0000   1.0000   1.0000   1.0000   1.0000   1.0000   1.0000
     1.0000   1.0000   1.0000   1.0000   1.0000   1.0000   1.0000   1.0000
     1.0000   1.0000   1.0000   1.0000   1.0000   1.0000   1.0000   1.0000
     1.0000   1.0000   1.0000   1.0000   1.0000   1.0000   1.0000   1.0000
     1.0000   1.0000   1.0000   1.0000   1.0000   1.0000   1.0000   1.0000
     1.0000   1.0000   1.0000   1.0000   1.0000   1.0000   1.0000   1.0000
     1.0000   1.0000   1.0000   1.0000   1.0000   1.0000   1.0000   1.0000
     1.0000   1.0000   1.0000   1.0000   1.0000   1.0000   1.0000   1.0000
     0.0000   0.0000   0.0000   0.0000   0.0000   0.0000   0.0000   0.0000
     0.0000   0.0000   0.0000   0.0000   0.0000   0.0000   0.0000   0.0000
     0.0000   0.0000   0.0000   0.0000   0.0000   0.0000   0.0000   0.0000

          k = 0.3333-0.3333 0.3333 ( 24303 PWs)   bands (ev):

    -8.1161  -7.4446  -6.9757  -6.8290  -6.4985  -6.2111  -5.9927  -5.5244
    -4.6088  -4.0339  -3.9473  -3.7213  -3.4303  -3.3725  -3.3297  -3.1902
    -3.0772  -2.8946  -2.6938  -2.4366  -2.1052  -1.9023  -1.8619  -1.7304
    -1.4978  -1.4816  -1.4078  -1.3531  -1.3472  -1.2502  -1.1478  -0.1124
     0.7122   0.8865   0.9446   0.9703   1.0518   1.4016   1.6895   1.7601
     1.8602   1.9240   2.0456   2.2300   2.5512   2.5872   2.6824   2.7116
     2.7321   2.7753   2.8989   3.1726   3.4743   3.9484   4.2096   4.3200
     4.7455   4.7457   4.8378   4.9999   5.0028   5.0675   5.1821   5.2537
     5.2757   5.4276   5.4392   5.5125   5.6533   5.7753   5.8330   6.4041
     6.5864   6.6945   6.9052   6.9170   6.9680   7.0305   7.0782   7.0874
     7.1604   7.1874   7.2381   7.2580   7.2819   7.3123   7.3442   7.3574
     7.3918   7.4392   7.7222   7.7392   7.8034   7.9232   7.9502   7.9560
     8.1303   8.1633   8.2755   8.2845   8.3826   8.3871   8.4136   8.5186
     8.6892   8.7403   8.9358   8.9880   9.0840   9.5051   9.5828   9.5981
     9.8791  10.3823  10.4240  10.5332  10.5390  10.8610  10.9256  11.1174
    11.2241  11.2471  11.3109  11.7039  11.7417  13.1836  14.5495  14.8467
    18.0636  18.2520  18.3179  18.5163  18.6497  18.7092  19.1325  19.3636
    19.4203  19.4867  19.5161  19.5514  19.5998  19.6236  19.6457  19.7230
    19.7413  19.7821  19.8988  19.9075  19.9904  19.9907  20.0379  20.1491

     occupation numbers 
     1.0000   1.0000   1.0000   1.0000   1.0000   1.0000   1.0000   1.0000
     1.0000   1.0000   1.0000   1.0000   1.0000   1.0000   1.0000   1.0000
     1.0000   1.0000   1.0000   1.0000   1.0000   1.0000   1.0000   1.0000
     1.0000   1.0000   1.0000   1.0000   1.0000   1.0000   1.0000   1.0000
     1.0000   1.0000   1.0000   1.0000   1.0000   1.0000   1.0000   1.0000
     1.0000   1.0000   1.0000   1.0000   1.0000   1.0000   1.0000   1.0000
     1.0000   1.0000   1.0000   1.0000   1.0000   1.0000   1.0000   1.0000
     1.0000   1.0000   1.0000   1.0000   1.0000   1.0000   1.0000   1.0000
     1.0000   1.0000   1.0000   1.0000   1.0000   1.0000   1.0000   1.0000
     1.0000   1.0000   1.0000   1.0000   1.0000   1.0000   1.0000   1.0000
     1.0000   1.0000   1.0000   1.0000   1.0000   1.0000   1.0000   1.0000
     1.0000   1.0000   1.0000   1.0000   1.0000   1.0000   1.0000   1.0000
     1.0000   1.0000   1.0000   1.0000   1.0000   1.0000   1.0000   1.0000
     1.0000   1.0000   1.0000   1.0000   1.0000   1.0000   1.0000   1.0000
     1.0000   1.0000   1.0000   1.0000   1.0000   1.0000   1.0000   1.0000
     1.0000   1.0000   1.0000   1.0000   1.0000   1.0000   1.0000   1.0000
     0.0000   0.0000   0.0000   0.0000   0.0000   0.0000   0.0000   0.0000
     0.0000   0.0000   0.0000   0.0000   0.0000   0.0000   0.0000   0.0000
     0.0000   0.0000   0.0000   0.0000   0.0000   0.0000   0.0000   0.0000

 ------ SPIN DOWN ----------


          k = 0.0000 0.0000 0.0000 ( 24207 PWs)   bands (ev):

    -8.6126  -7.1746  -6.2676  -6.2676  -6.1160  -6.1160  -5.8694  -4.9958
    -4.1366  -4.1366  -4.1182  -4.1182  -3.9762  -3.9762  -3.9511  -3.9456
    -3.8133  -3.8133  -3.3316  -2.9603  -2.6297  -2.6297  -1.9920  -0.4027
    -0.4027  -0.3433  -0.3008  -0.0970   0.1610   0.1610   0.2930   0.2930
     0.3696   0.6119   0.7893   0.7893   0.9962   0.9962   1.0249   1.0249
     1.0276   1.0998   1.4655   1.4655   3.1063   3.7779   3.7779   4.0081
     4.2324   4.2346   4.2346   4.2353   4.2804   4.2804   4.4352   4.4352
     4.4822   4.4822   4.6039   4.6387   4.6387   4.6518   4.6737   4.7567
     4.7567   4.8782   4.9466   4.9466   5.0893   5.2240   5.2240   5.2665
     5.3297   5.3297   5.3770   5.4592   5.4592   6.0339   6.0339   6.0564
     6.5941   6.5941   6.7353   6.9663   7.0711   7.0711   7.6117   8.2679
     8.2679   8.3888   8.4698   8.4698   8.6311   8.6311   8.7942   8.7942
     8.7989   8.8266   8.8912   8.8912   8.9041   9.2599   9.2599   9.2633
     9.6645   9.6645   9.8695   9.8736   9.8736   9.9113   9.9571   9.9571
     9.9656   9.9688   9.9828   9.9828  10.1282  10.1282  10.2962  10.2962
    10.3607  11.0376  12.4505  12.5123  12.5123  14.1345  16.0444  16.0444
    17.2803  17.3341  17.3341  17.5092  17.5527  17.5527  17.8474  17.8917
    17.8917  17.9914  17.9914  18.4064  18.9302  18.9302  18.9617  20.6034
    20.7521  20.7521  20.8125  20.8908  20.8909  20.9760  20.9764  21.0052

     occupation numbers 
     1.0000   1.0000   1.0000   1.0000   1.0000   1.0000   1.0000   1.0000
     1.0000   1.0000   1.0000   1.0000   1.0000   1.0000   1.0000   1.0000
     1.0000   1.0000   1.0000   1.0000   1.0000   1.0000   1.0000   1.0000
     1.0000   1.0000   1.0000   1.0000   1.0000   1.0000   1.0000   1.0000
     1.0000   1.0000   1.0000   1.0000   1.0000   1.0000   1.0000   1.0000
     1.0000   1.0000   1.0000   1.0000   1.0000   1.0000   1.0000   1.0000
     1.0000   1.0000   1.0000   1.0000   1.0000   1.0000   1.0000   1.0000
     1.0000   1.0000   1.0000   1.0000   1.0000   1.0000   1.0000   1.0000
     1.0000   1.0000   1.0000   1.0000   1.0000   1.0000   1.0000   1.0000
     1.0000   1.0000   1.0000   1.0000   1.0000   1.0000   1.0000   1.0000
     1.0000   1.0000   1.0000   1.0000   1.0000   1.0000   1.0000   1.0000
     1.0000   1.0000   1.0000   1.0000   1.0000   1.0000   1.0000   1.0000
     1.0000   1.0000   1.0000   1.0000   1.0000   1.0000   1.0000   1.0000
     1.0000   1.0000   1.0000   1.0000   1.0000   1.0000   1.0000   1.0000
     1.0000   1.0000   1.0000   1.0000   1.0000   1.0000   1.0000   1.0000
     1.0000   1.0000   1.0000   1.0000   1.0000   0.0000   1.0000   0.0000
     0.0000   0.0000   0.0000   0.0000   0.0000   0.0000   0.0000   0.0000
     0.0000   0.0000   0.0000   0.0000   0.0000   0.0000   0.0000   0.0000
     0.0000   0.0000   0.0000   0.0000   0.0000   0.0000   0.0000   0.0000

          k = 0.0000 0.0000 0.3333 ( 24280 PWs)   bands (ev):

    -8.4065  -7.6029  -6.6958  -6.0249  -5.8804  -5.8036  -5.4989  -5.2760
    -5.1070  -4.9552  -4.5073  -4.1315  -3.7891  -3.7720  -3.6559  -3.4268
    -3.1667  -3.1073  -2.8943  -2.5936  -2.4853  -2.3219  -2.2878  -1.7196
    -0.8415  -0.6788  -0.5291  -0.3035   0.1655   0.2158   0.3831   0.4295
     0.5019   0.5869   0.5886   0.6874   0.7569   0.7653   1.0761   1.5137
     1.9925   2.0222   2.2055   2.2159   2.4524   2.5080   2.5126   2.7740
     2.9677   3.0127   3.2375   3.2444   3.8659   3.9545   4.0743   4.0863
     4.3110   4.3798   4.5185   4.5728   5.0492   5.1358   5.1539   5.2312
     5.2366   5.5913   5.6190   5.7345   5.8033   6.0632   6.1058   6.2050
     6.2227   6.3287   6.3992   6.4852   6.5500   6.6363   6.6413   6.7575
     6.7993   6.9225   6.9380   6.9730   7.1680   7.1751   7.2141   7.3086
     7.4189   7.5181   7.7455   7.8025   7.8649   8.0860   8.1439   8.3184
     8.3400   8.4719   8.6786   8.7593   8.8004   9.1189   9.2605   9.3779
     9.3982   9.6466   9.6674   9.7206   9.8457   9.9276   9.9593   9.9686
    10.0028  10.0794  10.1304  10.1392  10.2442  10.2999  10.3020  10.4302
    10.4343  11.3055  11.7583  11.8104  12.1193  13.9894  15.7363  15.9333
    17.1896  17.3226  17.9673  18.2995  18.3473  18.5069  18.5231  18.6296
    18.8457  18.8479  19.0018  19.1023  19.2612  19.8497  19.8862  20.4705
    20.6497  20.6879  20.7919  20.8079  20.8363  20.8777  20.9279  20.9552

     occupation numbers 
     1.0000   1.0000   1.0000   1.0000   1.0000   1.0000   1.0000   1.0000
     1.0000   1.0000   1.0000   1.0000   1.0000   1.0000   1.0000   1.0000
     1.0000   1.0000   1.0000   1.0000   1.0000   1.0000   1.0000   1.0000
     1.0000   1.0000   1.0000   1.0000   1.0000   1.0000   1.0000   1.0000
     1.0000   1.0000   1.0000   1.0000   1.0000   1.0000   1.0000   1.0000
     1.0000   1.0000   1.0000   1.0000   1.0000   1.0000   1.0000   1.0000
     1.0000   1.0000   1.0000   1.0000   1.0000   1.0000   1.0000   1.0000
     1.0000   1.0000   1.0000   1.0000   1.0000   1.0000   1.0000   1.0000
     1.0000   1.0000   1.0000   1.0000   1.0000   1.0000   1.0000   1.0000
     1.0000   1.0000   1.0000   1.0000   1.0000   1.0000   1.0000   1.0000
     1.0000   1.0000   1.0000   1.0000   1.0000   1.0000   1.0000   1.0000
     1.0000   1.0000   1.0000   1.0000   1.0000   1.0000   1.0000   1.0000
     1.0000   1.0000   1.0000   1.0000   1.0000   1.0000   1.0000   1.0000
     1.0000   1.0000   1.0000   1.0000   1.0000   1.0000   1.0000   1.0000
     1.0000   1.0000   1.0000   1.0000   1.0000   1.0000   1.0000   1.0000
     1.0000   1.0000   1.0000   1.0000   1.0000   0.0000   1.0000   0.0000
     0.0000   0.0000   0.0000   0.0000   0.0000   0.0000   0.0000   0.0000
     0.0000   0.0000   0.0000   0.0000   0.0000   0.0000   0.0000   0.0000
     0.0000   0.0000   0.0000   0.0000   0.0000   0.0000   0.0000   0.0000

          k = 0.0000 0.3333 0.3333 ( 24236 PWs)   bands (ev):

    -8.2256  -7.4518  -7.1963  -6.5872  -5.9849  -5.6438  -5.3400  -4.9800
    -4.9589  -4.8366  -4.4719  -4.2251  -4.1927  -3.8891  -3.5235  -3.4967
    -2.7871  -2.3637  -2.3188  -2.2941  -2.1628  -2.1542  -1.9978  -1.8454
    -1.4469  -1.3026  -1.0557  -0.8681  -0.4849  -0.0267   0.0702   0.1554
     0.2025   0.5030   0.7143   1.1989   1.2099   1.3456   1.3955   1.4225
     1.4635   1.5138   1.9709   2.1048   2.1808   2.4432   2.7388   2.8546
     3.0000   3.5276   3.6573   3.6642   3.7952   3.8336   4.0025   4.0650
     4.1738   4.5941   4.6650   4.8375   5.0363   5.0641   5.1723   5.3224
     5.3514   5.6209   5.6520   5.7228   5.7751   5.9333   6.0355   6.1045
     6.1605   6.2705   6.3199   6.5068   6.5560   6.6220   6.6891   6.8698
     6.9469   6.9772   7.0599   7.0913   7.2608   7.3081   7.5337   7.7184
     7.9641   8.0016   8.0873   8.0879   8.1426   8.2636   8.2978   8.3436
     8.4023   8.4384   8.5615   8.6686   8.7243   8.7344   8.8922   8.9205
     9.1222   9.2302   9.2654   9.3515   9.5008   9.5015   9.6058   9.6739
     9.7602   9.8168   9.9443  10.0922  10.0942  10.1759  10.4452  10.7838
    11.0795  11.2646  11.5860  11.8566  12.2763  13.8517  15.6762  15.9800
    18.0649  18.1960  18.2360  18.3217  18.3807  18.8173  18.8760  18.9980
    19.2010  19.2359  19.4692  19.5058  19.7085  19.8422  19.9874  20.0309
    20.2076  20.4399  20.4885  20.5175  20.5831  20.6138  20.6284  20.6564

     occupation numbers 
     1.0000   1.0000   1.0000   1.0000   1.0000   1.0000   1.0000   1.0000
     1.0000   1.0000   1.0000   1.0000   1.0000   1.0000   1.0000   1.0000
     1.0000   1.0000   1.0000   1.0000   1.0000   1.0000   1.0000   1.0000
     1.0000   1.0000   1.0000   1.0000   1.0000   1.0000   1.0000   1.0000
     1.0000   1.0000   1.0000   1.0000   1.0000   1.0000   1.0000   1.0000
     1.0000   1.0000   1.0000   1.0000   1.0000   1.0000   1.0000   1.0000
     1.0000   1.0000   1.0000   1.0000   1.0000   1.0000   1.0000   1.0000
     1.0000   1.0000   1.0000   1.0000   1.0000   1.0000   1.0000   1.0000
     1.0000   1.0000   1.0000   1.0000   1.0000   1.0000   1.0000   1.0000
     1.0000   1.0000   1.0000   1.0000   1.0000   1.0000   1.0000   1.0000
     1.0000   1.0000   1.0000   1.0000   1.0000   1.0000   1.0000   1.0000
     1.0000   1.0000   1.0000   1.0000   1.0000   1.0000   1.0000   1.0000
     1.0000   1.0000   1.0000   1.0000   1.0000   1.0000   1.0000   1.0000
     1.0000   1.0000   1.0000   1.0000   1.0000   1.0000   1.0000   1.0000
     1.0000   1.0000   1.0000   1.0000   1.0000   1.0000   1.0000   1.0000
     1.0000   1.0000   1.0000   1.0000   1.0000   0.0000   1.0000   0.0000
     0.0000   0.0000   0.0000   0.0000   0.0000   0.0000   0.0000   0.0000
     0.0000   0.0000   0.0000   0.0000   0.0000   0.0000   0.0000   0.0000
     0.0000   0.0000   0.0000   0.0000   0.0000   0.0000   0.0000   0.0000

          k = 0.3333 0.3333 0.3333 ( 24303 PWs)   bands (ev):

    -8.0736  -7.2805  -6.9503  -6.9503  -6.3169  -6.1846  -6.1846  -5.4264
    -4.2281  -4.0058  -4.0058  -3.5458  -3.3714  -3.3714  -3.3214  -3.3214
    -3.2484  -2.8880  -2.6197  -2.6197  -1.9308  -1.9148  -1.9148  -1.5233
    -1.4435  -1.4435  -1.3685  -1.3685  -1.2763  -1.1193  -1.1193   0.1635
     0.8630   0.8630   0.9945   0.9945   0.9992   1.3018   1.8475   1.8475
     1.8991   1.9221   2.0199   2.0199   2.5788   2.5788   2.6162   2.7434
     2.7679   2.7679   3.2128   3.2128   3.5612   4.1319   4.3216   4.3216
     4.8464   4.9065   4.9065   4.9910   5.1087   5.1087   5.1880   5.3247
     5.3247   5.4157   5.5144   5.5144   5.5625   5.5625   5.6322   6.4277
     6.6977   6.6977   6.9735   7.0186   7.0381   7.0381   7.1201   7.1201
     7.2226   7.2226   7.2735   7.2741   7.2788   7.2788   7.4008   7.4008
     7.4234   7.5346   7.7648   7.7648   7.9346   7.9346   7.9824   8.0384
     8.2251   8.2251   8.3142   8.3142   8.3330   8.4748   8.5112   8.5112
     8.7167   8.7167   8.8419   9.1298   9.1632   9.5773   9.5773   9.8438
     9.8438  10.5038  10.5038  10.5576  10.6112  11.0006  11.0006  11.2985
    11.2985  11.3490  11.5687  11.6890  11.6890  13.7003  15.9948  15.9948
    18.1071  18.2427  18.2427  18.4797  18.6578  18.6578  19.2398  19.3747
    19.3747  19.5703  19.5703  19.5966  19.6448  19.6448  19.6931  19.7578
    19.7578  19.8859  19.9381  19.9381  20.0310  20.0310  20.0472  20.1987

     occupation numbers 
     1.0000   1.0000   1.0000   1.0000   1.0000   1.0000   1.0000   1.0000
     1.0000   1.0000   1.0000   1.0000   1.0000   1.0000   1.0000   1.0000
     1.0000   1.0000   1.0000   1.0000   1.0000   1.0000   1.0000   1.0000
     1.0000   1.0000   1.0000   1.0000   1.0000   1.0000   1.0000   1.0000
     1.0000   1.0000   1.0000   1.0000   1.0000   1.0000   1.0000   1.0000
     1.0000   1.0000   1.0000   1.0000   1.0000   1.0000   1.0000   1.0000
     1.0000   1.0000   1.0000   1.0000   1.0000   1.0000   1.0000   1.0000
     1.0000   1.0000   1.0000   1.0000   1.0000   1.0000   1.0000   1.0000
     1.0000   1.0000   1.0000   1.0000   1.0000   1.0000   1.0000   1.0000
     1.0000   1.0000   1.0000   1.0000   1.0000   1.0000   1.0000   1.0000
     1.0000   1.0000   1.0000   1.0000   1.0000   1.0000   1.0000   1.0000
     1.0000   1.0000   1.0000   1.0000   1.0000   1.0000   1.0000   1.0000
     1.0000   1.0000   1.0000   1.0000   1.0000   1.0000   1.0000   1.0000
     1.0000   1.0000   1.0000   1.0000   1.0000   1.0000   1.0000   1.0000
     1.0000   1.0000   1.0000   1.0000   1.0000   1.0000   1.0000   1.0000
     1.0000   1.0000   1.0000   1.0000   1.0000   0.0000   1.0000   0.0000
     0.0000   0.0000   0.0000   0.0000   0.0000   0.0000   0.0000   0.0000
     0.0000   0.0000   0.0000   0.0000   0.0000   0.0000   0.0000   0.0000
     0.0000   0.0000   0.0000   0.0000   0.0000   0.0000   0.0000   0.0000

          k =-0.3333 0.0000 0.3333 ( 24236 PWs)   bands (ev):

    -8.2121  -7.5574  -7.0728  -6.5730  -6.0395  -5.6546  -5.3571  -5.0322
    -4.8920  -4.7142  -4.5151  -4.2854  -4.1918  -4.0172  -3.5588  -3.2979
    -2.7653  -2.4135  -2.3608  -2.2570  -2.1744  -2.1203  -2.0629  -1.6548
    -1.5485  -1.2871  -1.0823  -0.9523  -0.5275  -0.0171   0.0878   0.1375
     0.3236   0.5376   0.9480   1.0473   1.1924   1.2261   1.2704   1.4006
     1.5173   1.6272   1.8913   1.9081   2.1540   2.6476   2.6991   2.9077
     3.0039   3.4952   3.6597   3.7229   3.7788   3.9340   4.0445   4.1581
     4.2269   4.4342   4.5800   4.8335   4.9737   5.0131   5.1983   5.2791
     5.4417   5.5901   5.6475   5.7290   5.8311   6.0220   6.0867   6.1570
     6.2009   6.2614   6.3141   6.4259   6.4863   6.6457   6.6541   6.8103
     6.9055   6.9858   7.0537   7.1442   7.2730   7.4181   7.5398   7.6814
     7.9031   7.9154   7.9721   8.0914   8.2011   8.2311   8.2928   8.3090
     8.3968   8.4732   8.5861   8.6224   8.7706   8.7975   8.9284   8.9852
     9.1122   9.1616   9.2668   9.3630   9.4708   9.5307   9.5444   9.7053
     9.7557   9.8186   9.9770  10.0697  10.1121  10.1391  10.5467  10.9515
    10.9809  11.1932  11.5166  11.7411  12.3550  14.0841  15.5811  15.8775
    18.0432  18.2068  18.2814  18.3311  18.3812  18.8100  18.9418  19.1133
    19.1352  19.2894  19.3862  19.5080  19.7174  19.8646  19.8939  20.0478
    20.2536  20.3620  20.4296  20.5243  20.5560  20.6064  20.6598  20.7033

     occupation numbers 
     1.0000   1.0000   1.0000   1.0000   1.0000   1.0000   1.0000   1.0000
     1.0000   1.0000   1.0000   1.0000   1.0000   1.0000   1.0000   1.0000
     1.0000   1.0000   1.0000   1.0000   1.0000   1.0000   1.0000   1.0000
     1.0000   1.0000   1.0000   1.0000   1.0000   1.0000   1.0000   1.0000
     1.0000   1.0000   1.0000   1.0000   1.0000   1.0000   1.0000   1.0000
     1.0000   1.0000   1.0000   1.0000   1.0000   1.0000   1.0000   1.0000
     1.0000   1.0000   1.0000   1.0000   1.0000   1.0000   1.0000   1.0000
     1.0000   1.0000   1.0000   1.0000   1.0000   1.0000   1.0000   1.0000
     1.0000   1.0000   1.0000   1.0000   1.0000   1.0000   1.0000   1.0000
     1.0000   1.0000   1.0000   1.0000   1.0000   1.0000   1.0000   1.0000
     1.0000   1.0000   1.0000   1.0000   1.0000   1.0000   1.0000   1.0000
     1.0000   1.0000   1.0000   1.0000   1.0000   1.0000   1.0000   1.0000
     1.0000   1.0000   1.0000   1.0000   1.0000   1.0000   1.0000   1.0000
     1.0000   1.0000   1.0000   1.0000   1.0000   1.0000   1.0000   1.0000
     1.0000   1.0000   1.0000   1.0000   1.0000   1.0000   1.0000   1.0000
     1.0000   1.0000   1.0000   1.0000   1.0000   0.0000   1.0000   0.0000
     0.0000   0.0000   0.0000   0.0000   0.0000   0.0000   0.0000   0.0000
     0.0000   0.0000   0.0000   0.0000   0.0000   0.0000   0.0000   0.0000
     0.0000   0.0000   0.0000   0.0000   0.0000   0.0000   0.0000   0.0000

          k = 0.3333-0.3333 0.3333 ( 24303 PWs)   bands (ev):

    -8.0514  -7.4066  -6.9511  -6.8013  -6.4711  -6.1824  -5.9480  -5.4799
    -4.5470  -4.0122  -3.9248  -3.6823  -3.4089  -3.3465  -3.3128  -3.1568
    -3.0470  -2.8665  -2.6529  -2.3832  -2.0562  -1.8758  -1.8319  -1.7069
    -1.4803  -1.4661  -1.3842  -1.3307  -1.3221  -1.1824  -1.0634   0.0025
     0.7405   0.9109   0.9746   0.9944   1.0955   1.4492   1.7126   1.7958
     1.8821   1.9597   2.0759   2.2867   2.5920   2.6053   2.7057   2.7337
     2.7614   2.8269   2.9450   3.2622   3.5156   4.0081   4.2591   4.3490
     4.7697   4.7871   4.8898   5.0262   5.0320   5.0849   5.2278   5.2795
     5.3017   5.4542   5.4714   5.5459   5.7091   5.8290   5.8837   6.4845
     6.6159   6.7341   6.9316   6.9460   6.9829   7.0537   7.0929   7.1267
     7.1902   7.2110   7.2560   7.2883   7.3065   7.3513   7.3783   7.3868
     7.4206   7.4746   7.7653   7.7771   7.8456   7.9493   7.9757   7.9847
     8.1543   8.1895   8.2980   8.3196   8.4153   8.4249   8.4340   8.5671
     8.7257   8.7731   8.9935   9.0217   9.1975   9.5576   9.6370   9.6874
     9.9707  10.4081  10.5489  10.5590  10.6168  10.9678  10.9715  11.2210
    11.2487  11.3390  11.5015  11.7796  11.8130  14.0704  15.6562  15.9877
    18.0952  18.2740  18.3456  18.5483  18.6751  18.7573  19.1688  19.3871
    19.4354  19.5014  19.5337  19.5698  19.6394  19.6476  19.6749  19.7422
    19.7580  19.8088  19.9320  19.9331  20.0075  20.0105  20.0706  20.1826

     occupation numbers 
     1.0000   1.0000   1.0000   1.0000   1.0000   1.0000   1.0000   1.0000
     1.0000   1.0000   1.0000   1.0000   1.0000   1.0000   1.0000   1.0000
     1.0000   1.0000   1.0000   1.0000   1.0000   1.0000   1.0000   1.0000
     1.0000   1.0000   1.0000   1.0000   1.0000   1.0000   1.0000   1.0000
     1.0000   1.0000   1.0000   1.0000   1.0000   1.0000   1.0000   1.0000
     1.0000   1.0000   1.0000   1.0000   1.0000   1.0000   1.0000   1.0000
     1.0000   1.0000   1.0000   1.0000   1.0000   1.0000   1.0000   1.0000
     1.0000   1.0000   1.0000   1.0000   1.0000   1.0000   1.0000   1.0000
     1.0000   1.0000   1.0000   1.0000   1.0000   1.0000   1.0000   1.0000
     1.0000   1.0000   1.0000   1.0000   1.0000   1.0000   1.0000   1.0000
     1.0000   1.0000   1.0000   1.0000   1.0000   1.0000   1.0000   1.0000
     1.0000   1.0000   1.0000   1.0000   1.0000   1.0000   1.0000   1.0000
     1.0000   1.0000   1.0000   1.0000   1.0000   1.0000   1.0000   1.0000
     1.0000   1.0000   1.0000   1.0000   1.0000   1.0000   1.0000   1.0000
     1.0000   1.0000   1.0000   1.0000   1.0000   1.0000   1.0000   1.0000
     1.0000   1.0000   1.0000   1.0000   1.0000   0.0000   1.0000   0.0000
     0.0000   0.0000   0.0000   0.0000   0.0000   0.0000   0.0000   0.0000
     0.0000   0.0000   0.0000   0.0000   0.0000   0.0000   0.0000   0.0000
     0.0000   0.0000   0.0000   0.0000   0.0000   0.0000   0.0000   0.0000

     highest occupied, lowest unoccupied level (ev):    14.9520   13.7003

!    total energy              =    -724.68502798 Ry
     Harris-Foulkes estimate   =    -724.68502706 Ry
     estimated scf accuracy    <       0.00000100 Ry

     The total energy is the sum of the following terms:

     one-electron contribution =     233.09978049 Ry
     hartree contribution      =      69.10712586 Ry
     xc contribution           =    -226.39865104 Ry
     ewald contribution        =    -800.49328329 Ry

     total magnetization       =     2.00 Bohr mag/cell
     absolute magnetization    =     2.20 Bohr mag/cell

     convergence has been achieved in  10 iterations

     Writing output data file di.save
 
     init_run     :      1.29s CPU      1.69s WALL (       1 calls)
     electrons    :     28.63s CPU     29.04s WALL (       1 calls)

     Called by init_run:
     wfcinit      :      0.74s CPU      0.82s WALL (       1 calls)
     wfcinit:atom :      0.00s CPU      0.01s WALL (       2 calls)
     wfcinit:wfcr :      0.70s CPU      0.76s WALL (       2 calls)
     potinit      :      0.08s CPU      0.09s WALL (       1 calls)

     Called by electrons:
     c_bands      :     26.88s CPU     27.27s WALL (      10 calls)
     sum_band     :      1.17s CPU      1.18s WALL (      10 calls)
     v_of_rho     :      0.40s CPU      0.41s WALL (      11 calls)
     v_h          :      0.01s CPU      0.01s WALL (      11 calls)
     v_xc         :      0.39s CPU      0.40s WALL (      11 calls)
     mix_rho      :      0.07s CPU      0.08s WALL (      10 calls)

     Called by c_bands:
     init_us_2    :      0.18s CPU      0.19s WALL (      42 calls)
     cegterg      :     24.51s CPU     24.86s WALL (      20 calls)

     Called by sum_band:

     Called by *egterg:
     h_psi        :      9.38s CPU      9.49s WALL (     146 calls)
     g_psi        :      0.05s CPU      0.05s WALL (     124 calls)
     cdiaghg      :     10.90s CPU     10.94s WALL (     144 calls)
     cegterg:over :      1.85s CPU      1.86s WALL (     124 calls)
     cegterg:upda :      1.42s CPU      1.43s WALL (     124 calls)
     cegterg:last :      0.52s CPU      0.52s WALL (      20 calls)

     Called by h_psi:
     h_psi:pot    :      9.27s CPU      9.38s WALL (     146 calls)
     h_psi:calbec :      2.02s CPU      2.04s WALL (     146 calls)
     vloc_psi     :      5.15s CPU      5.22s WALL (     146 calls)
     add_vuspsi   :      2.10s CPU      2.12s WALL (     146 calls)

     General routines
     calbec       :      2.02s CPU      2.04s WALL (     146 calls)
     fft          :      0.12s CPU      0.34s WALL (     228 calls)
     fftw         :      5.49s CPU      5.48s WALL (   20454 calls)
 
     Parallel routines
     fft_scatter  :      1.62s CPU      1.59s WALL (   20682 calls)
 
     PWSCF        :    32.78s CPU        36.33s WALL

 
   This run was terminated on:  10:29:23  12May2020            

=------------------------------------------------------------------------------=
   JOB DONE.
=------------------------------------------------------------------------------=
