
     Program PWSCF v.6.1 (svn rev. 13369) starts on 12May2020 at 10:24: 3 

     This program is part of the open-source Quantum ESPRESSO suite
     for quantum simulation of materials; please cite
         "P. Giannozzi et al., J. Phys.:Condens. Matter 21 395502 (2009);
          URL http://www.quantum-espresso.org", 
     in publications or presentations arising from this work. More details at
     http://www.quantum-espresso.org/quote

     Parallel version (MPI), running on    96 processors
     K-points division:     npool     =       6
     R & G space division:  proc/nbgrp/npool/nimage =      16
     Reading input from scf.in
Warning: card &IONS ignored
Warning: card / ignored

     Current dimensions of program PWSCF are:
     Max number of different atomic species (ntypx) = 10
     Max number of k-points (npk) =  40000
     Max angular momentum in pseudopotentials (lmaxx) =  3

     Subspace diagonalization in iterative solution of the eigenvalue problem:
     a serial algorithm will be used

 
     Parallelization info
     --------------------
     sticks:   dense  smooth     PW     G-vecs:    dense   smooth      PW
     Min         252     252     67                12125    12125    1669
     Max         254     254     68                12129    12129    1672
     Sum        4049    4049   1085               194039   194039   26745
 


     bravais-lattice index     =            1
     lattice parameter (alat)  =      13.4862  a.u.
     unit-cell volume          =    2452.8358 (a.u.)^3
     number of atoms/cell      =           63
     number of atomic types    =            2
     number of electrons       =       254.00 (up: 127.00, down: 127.00)
     number of Kohn-Sham states=          152
     kinetic-energy cutoff     =      70.0000  Ry
     charge density cutoff     =     280.0000  Ry
     convergence threshold     =      1.0E-06
     mixing beta               =       0.5000
     number of iterations used =            8  plain     mixing
     Exchange-correlation      = PBE ( 1  4  3  4 0 0)

     celldm(1)=  13.486197  celldm(2)=   0.000000  celldm(3)=   0.000000
     celldm(4)=   0.000000  celldm(5)=   0.000000  celldm(6)=   0.000000

     crystal axes: (cart. coord. in units of alat)
               a(1) = (   1.000000   0.000000   0.000000 )  
               a(2) = (   0.000000   1.000000   0.000000 )  
               a(3) = (   0.000000   0.000000   1.000000 )  

     reciprocal axes: (cart. coord. in units 2 pi/alat)
               b(1) = (  1.000000  0.000000  0.000000 )  
               b(2) = (  0.000000  1.000000  0.000000 )  
               b(3) = (  0.000000  0.000000  1.000000 )  


     PseudoPot. # 1 for C  read from file:
     /home/tjsmart/Pseudo/C_ONCV_PBE-1.0.upf
     MD5 check sum: 72b63e32b2fd29504de26a4901699f60
     Pseudo is Norm-conserving, Zval =  4.0
     Generated using ONCVPSP code by D. R. Hamann
     Using radial grid of 1248 points,  4 beta functions with: 
                l(1) =   0
                l(2) =   0
                l(3) =   1
                l(4) =   1

     PseudoPot. # 2 for N  read from file:
     /home/tjsmart/Pseudo/N_ONCV_PBE-1.0.upf
     MD5 check sum: 09890da6b2972017450f7114a6086fad
     Pseudo is Norm-conserving, Zval =  5.0
     Generated using ONCVPSP code by D. R. Hamann
     Using radial grid of 1058 points,  4 beta functions with: 
                l(1) =   0
                l(2) =   0
                l(3) =   1
                l(4) =   1

     atomic species   valence    mass     pseudopotential
        C              4.00    12.01110     C ( 1.00)
        N              5.00    14.00670     N ( 1.00)

     Starting magnetic structure 
     atomic species   magnetization
        C            0.200
        N            0.200

      6 Sym. Ops. (no inversion) found


                                    s                        frac. trans.

      isym =  1     identity                                     

 cryst.   s( 1) = (     1          0          0      )
                  (     0          1          0      )
                  (     0          0          1      )

 cart.    s( 1) = (  1.0000000  0.0000000  0.0000000 )
                  (  0.0000000  1.0000000  0.0000000 )
                  (  0.0000000  0.0000000  1.0000000 )


      isym =  2     120 deg rotation - cart. axis [-1,-1,-1]     

 cryst.   s( 2) = (     0          0          1      )
                  (     1          0          0      )
                  (     0          1          0      )

 cart.    s( 2) = (  0.0000000  1.0000000  0.0000000 )
                  (  0.0000000  0.0000000  1.0000000 )
                  (  1.0000000  0.0000000  0.0000000 )


      isym =  3     120 deg rotation - cart. axis [1,1,1]        

 cryst.   s( 3) = (     0          1          0      )
                  (     0          0          1      )
                  (     1          0          0      )

 cart.    s( 3) = (  0.0000000  0.0000000  1.0000000 )
                  (  1.0000000  0.0000000  0.0000000 )
                  (  0.0000000  1.0000000  0.0000000 )


      isym =  4     inv. 180 deg rotation - cart. axis [1,-1,0]  

 cryst.   s( 4) = (     0          1          0      )
                  (     1          0          0      )
                  (     0          0          1      )

 cart.    s( 4) = (  0.0000000  1.0000000  0.0000000 )
                  (  1.0000000  0.0000000  0.0000000 )
                  (  0.0000000  0.0000000  1.0000000 )


      isym =  5     inv. 180 deg rotation - cart. axis [-1,0,1]  

 cryst.   s( 5) = (     0          0          1      )
                  (     0          1          0      )
                  (     1          0          0      )

 cart.    s( 5) = (  0.0000000  0.0000000  1.0000000 )
                  (  0.0000000  1.0000000  0.0000000 )
                  (  1.0000000  0.0000000  0.0000000 )


      isym =  6     inv. 180 deg rotation - cart. axis [0,1,-1]  

 cryst.   s( 6) = (     1          0          0      )
                  (     0          0          1      )
                  (     0          1          0      )

 cart.    s( 6) = (  1.0000000  0.0000000  0.0000000 )
                  (  0.0000000  0.0000000  1.0000000 )
                  (  0.0000000  1.0000000  0.0000000 )


     point group C_3v (3m)  
     there are  3 classes
     the character table:

       E     2C3   3s_v 
A_1    1.00  1.00  1.00
A_2    1.00  1.00 -1.00
E      2.00 -1.00  0.00

     the symmetry operations in each class and the name of the first element:

     E        1
          identity                                               
     2C3      2    3
          120 deg rotation - cart. axis [-1,-1,-1]               
     3s_v     4    5    6
          inv. 180 deg rotation - cart. axis [1,-1,0]            

   Cartesian axes

     site n.     atom                  positions (alat units)
         1           C   tau(   1) = (   0.3757280   0.3757280   0.8737130  )
         2           C   tau(   2) = (   0.5000109   0.0001406   0.0001406  )
         3           C   tau(   3) = (   0.5000695   0.0000019   0.5000695  )
         4           C   tau(   4) = (   0.0001406   0.5000109   0.0001406  )
         5           C   tau(   5) = (   0.0000019   0.5000695   0.5000695  )
         6           C   tau(   6) = (  -0.0001095  -0.0001095  -0.0001095  )
         7           C   tau(   7) = (   0.0001406   0.0001406   0.5000109  )
         8           C   tau(   8) = (   0.2501754   0.2501754  -0.0012939  )
         9           C   tau(   9) = (   0.2504776   0.2504776   0.4944470  )
        10           C   tau(  10) = (   0.2504582   0.7490061   0.0010341  )
        11           C   tau(  11) = (   0.2529369   0.7475925   0.5015404  )
        12           C   tau(  12) = (   0.7490061   0.2504582   0.0010341  )
        13           C   tau(  13) = (   0.7475925   0.2529369   0.5015404  )
        14           C   tau(  14) = (   0.7496791   0.7496791  -0.0000800  )
        15           C   tau(  15) = (   0.5000695   0.5000695   0.0000019  )
        16           C   tau(  16) = (   0.7492507   0.7492507   0.4988733  )
        17           C   tau(  17) = (   0.5015404   0.2529369   0.7475925  )
        18           C   tau(  18) = (   0.5015404   0.7475925   0.2529369  )
        19           C   tau(  19) = (   0.4988733   0.7492507   0.7492507  )
        20           C   tau(  20) = (  -0.0012939   0.2501754   0.2501754  )
        21           C   tau(  21) = (   0.0010341   0.2504582   0.7490061  )
        22           C   tau(  22) = (   0.0010341   0.7490061   0.2504582  )
        23           C   tau(  23) = (  -0.0000800   0.7496791   0.7496791  )
        24           C   tau(  24) = (   0.2504776   0.4944470   0.2504776  )
        25           C   tau(  25) = (   0.2529369   0.5015404   0.7475925  )
        26           C   tau(  26) = (   0.2501754  -0.0012939   0.2501754  )
        27           C   tau(  27) = (   0.2504582   0.0010341   0.7490061  )
        28           C   tau(  28) = (   0.7475925   0.5015404   0.2529369  )
        29           C   tau(  29) = (   0.7492507   0.4988733   0.7492507  )
        30           C   tau(  30) = (   0.4944470   0.2504776   0.2504776  )
        31           C   tau(  31) = (   0.7490061   0.0010341   0.2504582  )
        32           C   tau(  32) = (   0.6247650   0.8746014   0.6247650  )
        33           C   tau(  33) = (   0.6344054   0.3684434   0.6344054  )
        34           C   tau(  34) = (   0.3759369   0.8761980   0.8761980  )
        35           C   tau(  35) = (   0.3757280   0.8737130   0.3757280  )
        36           C   tau(  36) = (   0.8761980   0.3759369   0.8761980  )
        37           C   tau(  37) = (   0.8737130   0.3757280   0.3757280  )
        38           C   tau(  38) = (   0.8747555   0.8747555   0.8747555  )
        39           C   tau(  39) = (   0.8761980   0.8761980   0.3759369  )
        40           C   tau(  40) = (   0.1253863   0.1253863   0.8742083  )
        41           C   tau(  41) = (   0.1237042   0.1237042   0.3748646  )
        42           C   tau(  42) = (   0.1245228   0.6245986   0.8757831  )
        43           C   tau(  43) = (   0.1272039   0.6228151   0.3762939  )
        44           C   tau(  44) = (   0.6245986   0.1245228   0.8757831  )
        45           C   tau(  45) = (   0.6228151   0.1272039   0.3762939  )
        46           C   tau(  46) = (   0.6245986   0.8757831   0.1245228  )
        47           C   tau(  47) = (   0.6247650   0.6247650   0.8746014  )
        48           C   tau(  48) = (   0.3748646   0.1237042   0.1237042  )
        49           C   tau(  49) = (   0.3762939   0.1272039   0.6228151  )
        50           C   tau(  50) = (   0.3762939   0.6228151   0.1272039  )
        51           C   tau(  51) = (   0.3684434   0.6344054   0.6344054  )
        52           C   tau(  52) = (   0.8742083   0.1253863   0.1253863  )
        53           C   tau(  53) = (   0.8757831   0.1245228   0.6245986  )
        54           C   tau(  54) = (   0.8757831   0.6245986   0.1245228  )
        55           C   tau(  55) = (   0.8746014   0.6247650   0.6247650  )
        56           C   tau(  56) = (   0.1237042   0.3748646   0.1237042  )
        57           C   tau(  57) = (   0.1272039   0.3762939   0.6228151  )
        58           C   tau(  58) = (   0.1253863   0.8742083   0.1253863  )
        59           C   tau(  59) = (   0.1245228   0.8757831   0.6245986  )
        60           C   tau(  60) = (   0.6228151   0.3762939   0.1272039  )
        61           C   tau(  61) = (   0.6344054   0.6344054   0.3684434  )
        62           C   tau(  62) = (   0.7496791  -0.0000800   0.7496791  )
        63           N   tau(  63) = (   0.3640962   0.3640962   0.3640962  )

   Crystallographic axes

     site n.     atom                  positions (cryst. coord.)
         1           C   tau(   1) = (  0.3757280  0.3757280  0.8737130  )
         2           C   tau(   2) = (  0.5000109  0.0001406  0.0001406  )
         3           C   tau(   3) = (  0.5000695  0.0000019  0.5000695  )
         4           C   tau(   4) = (  0.0001406  0.5000109  0.0001406  )
         5           C   tau(   5) = (  0.0000019  0.5000695  0.5000695  )
         6           C   tau(   6) = ( -0.0001095 -0.0001095 -0.0001095  )
         7           C   tau(   7) = (  0.0001406  0.0001406  0.5000109  )
         8           C   tau(   8) = (  0.2501754  0.2501754 -0.0012939  )
         9           C   tau(   9) = (  0.2504776  0.2504776  0.4944470  )
        10           C   tau(  10) = (  0.2504582  0.7490061  0.0010341  )
        11           C   tau(  11) = (  0.2529369  0.7475925  0.5015404  )
        12           C   tau(  12) = (  0.7490061  0.2504582  0.0010341  )
        13           C   tau(  13) = (  0.7475925  0.2529369  0.5015404  )
        14           C   tau(  14) = (  0.7496791  0.7496791 -0.0000800  )
        15           C   tau(  15) = (  0.5000695  0.5000695  0.0000019  )
        16           C   tau(  16) = (  0.7492507  0.7492507  0.4988733  )
        17           C   tau(  17) = (  0.5015404  0.2529369  0.7475925  )
        18           C   tau(  18) = (  0.5015404  0.7475925  0.2529369  )
        19           C   tau(  19) = (  0.4988733  0.7492507  0.7492507  )
        20           C   tau(  20) = ( -0.0012939  0.2501754  0.2501754  )
        21           C   tau(  21) = (  0.0010341  0.2504582  0.7490061  )
        22           C   tau(  22) = (  0.0010341  0.7490061  0.2504582  )
        23           C   tau(  23) = ( -0.0000800  0.7496791  0.7496791  )
        24           C   tau(  24) = (  0.2504776  0.4944470  0.2504776  )
        25           C   tau(  25) = (  0.2529369  0.5015404  0.7475925  )
        26           C   tau(  26) = (  0.2501754 -0.0012939  0.2501754  )
        27           C   tau(  27) = (  0.2504582  0.0010341  0.7490061  )
        28           C   tau(  28) = (  0.7475925  0.5015404  0.2529369  )
        29           C   tau(  29) = (  0.7492507  0.4988733  0.7492507  )
        30           C   tau(  30) = (  0.4944470  0.2504776  0.2504776  )
        31           C   tau(  31) = (  0.7490061  0.0010341  0.2504582  )
        32           C   tau(  32) = (  0.6247650  0.8746014  0.6247650  )
        33           C   tau(  33) = (  0.6344054  0.3684434  0.6344054  )
        34           C   tau(  34) = (  0.3759369  0.8761980  0.8761980  )
        35           C   tau(  35) = (  0.3757280  0.8737130  0.3757280  )
        36           C   tau(  36) = (  0.8761980  0.3759369  0.8761980  )
        37           C   tau(  37) = (  0.8737130  0.3757280  0.3757280  )
        38           C   tau(  38) = (  0.8747555  0.8747555  0.8747555  )
        39           C   tau(  39) = (  0.8761980  0.8761980  0.3759369  )
        40           C   tau(  40) = (  0.1253863  0.1253863  0.8742083  )
        41           C   tau(  41) = (  0.1237042  0.1237042  0.3748646  )
        42           C   tau(  42) = (  0.1245228  0.6245986  0.8757831  )
        43           C   tau(  43) = (  0.1272039  0.6228151  0.3762939  )
        44           C   tau(  44) = (  0.6245986  0.1245228  0.8757831  )
        45           C   tau(  45) = (  0.6228151  0.1272039  0.3762939  )
        46           C   tau(  46) = (  0.6245986  0.8757831  0.1245228  )
        47           C   tau(  47) = (  0.6247650  0.6247650  0.8746014  )
        48           C   tau(  48) = (  0.3748646  0.1237042  0.1237042  )
        49           C   tau(  49) = (  0.3762939  0.1272039  0.6228151  )
        50           C   tau(  50) = (  0.3762939  0.6228151  0.1272039  )
        51           C   tau(  51) = (  0.3684434  0.6344054  0.6344054  )
        52           C   tau(  52) = (  0.8742083  0.1253863  0.1253863  )
        53           C   tau(  53) = (  0.8757831  0.1245228  0.6245986  )
        54           C   tau(  54) = (  0.8757831  0.6245986  0.1245228  )
        55           C   tau(  55) = (  0.8746014  0.6247650  0.6247650  )
        56           C   tau(  56) = (  0.1237042  0.3748646  0.1237042  )
        57           C   tau(  57) = (  0.1272039  0.3762939  0.6228151  )
        58           C   tau(  58) = (  0.1253863  0.8742083  0.1253863  )
        59           C   tau(  59) = (  0.1245228  0.8757831  0.6245986  )
        60           C   tau(  60) = (  0.6228151  0.3762939  0.1272039  )
        61           C   tau(  61) = (  0.6344054  0.6344054  0.3684434  )
        62           C   tau(  62) = (  0.7496791 -0.0000800  0.7496791  )
        63           N   tau(  63) = (  0.3640962  0.3640962  0.3640962  )

     number of k points=     6  Marzari-Vanderbilt smearing, width (Ry)=  0.0010
                       cart. coord. in units 2pi/alat
        k(    1) = (   0.0000000   0.0000000   0.0000000), wk =   0.0370370
        k(    2) = (   0.0000000   0.0000000   0.3333333), wk =   0.2222222
        k(    3) = (   0.0000000   0.3333333   0.3333333), wk =   0.2222222
        k(    4) = (   0.3333333   0.3333333   0.3333333), wk =   0.0740741
        k(    5) = (  -0.3333333   0.0000000   0.3333333), wk =   0.2222222
        k(    6) = (   0.3333333  -0.3333333   0.3333333), wk =   0.2222222

                       cryst. coord.
        k(    1) = (   0.0000000   0.0000000   0.0000000), wk =   0.0370370
        k(    2) = (   0.0000000   0.0000000   0.3333333), wk =   0.2222222
        k(    3) = (   0.0000000   0.3333333   0.3333333), wk =   0.2222222
        k(    4) = (   0.3333333   0.3333333   0.3333333), wk =   0.0740741
        k(    5) = (  -0.3333333   0.0000000   0.3333333), wk =   0.2222222
        k(    6) = (   0.3333333  -0.3333333   0.3333333), wk =   0.2222222

     Dense  grid:   194039 G-vectors     FFT dimensions: (  72,  72,  72)

     Estimated max dynamical RAM per process >      60.23MB

     Estimated total allocated dynamical RAM >    5782.56MB
     Generating pointlists ...
     new r_m :   0.0853 (alat units)  1.1510 (a.u.) for type    1
     new r_m :   0.0853 (alat units)  1.1510 (a.u.) for type    2

     Initial potential from superposition of free atoms

     starting charge  252.99722, renormalised to  254.00000
     Starting wfc are  252 randomized atomic wfcs

     total cpu time spent up to now is        3.8 secs

     per-process dynamical memory:    59.5 Mb

     Self-consistent Calculation

     iteration #  1     ecut=    70.00 Ry     beta=0.50
     Davidson diagonalization with overlap
     ethr =  1.00E-02,  avg # of iterations =  3.0

     total cpu time spent up to now is        6.1 secs

     total energy              =    -724.34605133 Ry
     Harris-Foulkes estimate   =    -724.78193670 Ry
     estimated scf accuracy    <       4.21588484 Ry

     total magnetization       =     0.00 Bohr mag/cell
     absolute magnetization    =     0.90 Bohr mag/cell

     iteration #  2     ecut=    70.00 Ry     beta=0.50
     Davidson diagonalization with overlap
     ethr =  1.66E-03,  avg # of iterations =  2.0

     total cpu time spent up to now is        7.5 secs

     total energy              =    -724.66994170 Ry
     Harris-Foulkes estimate   =    -724.58559020 Ry
     estimated scf accuracy    <       0.66800620 Ry

     total magnetization       =     0.00 Bohr mag/cell
     absolute magnetization    =     0.35 Bohr mag/cell

     iteration #  3     ecut=    70.00 Ry     beta=0.50
     Davidson diagonalization with overlap
     ethr =  2.63E-04,  avg # of iterations =  8.9

     total cpu time spent up to now is       11.5 secs

     total energy              =    -724.73830261 Ry
     Harris-Foulkes estimate   =    -724.77981712 Ry
     estimated scf accuracy    <       0.15175587 Ry

     total magnetization       =    -0.00 Bohr mag/cell
     absolute magnetization    =     0.11 Bohr mag/cell

     iteration #  4     ecut=    70.00 Ry     beta=0.50
     Davidson diagonalization with overlap
     ethr =  5.97E-05,  avg # of iterations =  7.8

     total cpu time spent up to now is       15.4 secs

     total energy              =    -724.77659060 Ry
     Harris-Foulkes estimate   =    -724.77405883 Ry
     estimated scf accuracy    <       0.01287480 Ry

     total magnetization       =    -0.00 Bohr mag/cell
     absolute magnetization    =     0.07 Bohr mag/cell

     iteration #  5     ecut=    70.00 Ry     beta=0.50
     Davidson diagonalization with overlap
     c_bands:  1 eigenvalues not converged
     ethr =  5.07E-06,  avg # of iterations =  9.5

     total cpu time spent up to now is       20.5 secs

     total energy              =    -724.77979627 Ry
     Harris-Foulkes estimate   =    -724.77957989 Ry
     estimated scf accuracy    <       0.00151239 Ry

     total magnetization       =    -0.00 Bohr mag/cell
     absolute magnetization    =     0.04 Bohr mag/cell

     iteration #  6     ecut=    70.00 Ry     beta=0.50
     Davidson diagonalization with overlap
     ethr =  5.95E-07,  avg # of iterations =  8.7

     total cpu time spent up to now is       24.6 secs

     total energy              =    -724.78004448 Ry
     Harris-Foulkes estimate   =    -724.78007439 Ry
     estimated scf accuracy    <       0.00020022 Ry

     total magnetization       =     0.00 Bohr mag/cell
     absolute magnetization    =     0.02 Bohr mag/cell

     iteration #  7     ecut=    70.00 Ry     beta=0.50
     Davidson diagonalization with overlap
     ethr =  7.88E-08,  avg # of iterations =  3.2

     total cpu time spent up to now is       26.8 secs

     total energy              =    -724.78010223 Ry
     Harris-Foulkes estimate   =    -724.78011135 Ry
     estimated scf accuracy    <       0.00003659 Ry

     total magnetization       =     0.00 Bohr mag/cell
     absolute magnetization    =     0.01 Bohr mag/cell

     iteration #  8     ecut=    70.00 Ry     beta=0.50
     Davidson diagonalization with overlap
     ethr =  1.44E-08,  avg # of iterations =  2.7

     total cpu time spent up to now is       28.6 secs

     total energy              =    -724.78011006 Ry
     Harris-Foulkes estimate   =    -724.78011005 Ry
     estimated scf accuracy    <       0.00000296 Ry

     total magnetization       =     0.00 Bohr mag/cell
     absolute magnetization    =     0.01 Bohr mag/cell

     iteration #  9     ecut=    70.00 Ry     beta=0.50
     Davidson diagonalization with overlap
     ethr =  1.16E-09,  avg # of iterations =  3.3
 
     Magnetic moment per site:
     atom:    1    charge:    1.8201    magn:    0.0000    constr:    0.0000
     atom:    2    charge:    1.8353    magn:   -0.0000    constr:    0.0000
     atom:    3    charge:    1.8250    magn:    0.0000    constr:    0.0000
     atom:    4    charge:    1.8353    magn:   -0.0000    constr:    0.0000
     atom:    5    charge:    1.8250    magn:    0.0000    constr:    0.0000
     atom:    6    charge:    1.8146    magn:    0.0000    constr:    0.0000
     atom:    7    charge:    1.8353    magn:   -0.0000    constr:    0.0000
     atom:    8    charge:    1.8188    magn:    0.0000    constr:    0.0000
     atom:    9    charge:    1.7994    magn:   -0.0001    constr:    0.0000
     atom:   10    charge:    1.8129    magn:    0.0000    constr:    0.0000
     atom:   11    charge:    1.8228    magn:    0.0000    constr:    0.0000
     atom:   12    charge:    1.8129    magn:    0.0000    constr:    0.0000
     atom:   13    charge:    1.8228    magn:    0.0000    constr:    0.0000
     atom:   14    charge:    1.8189    magn:    0.0000    constr:    0.0000
     atom:   15    charge:    1.8250    magn:    0.0000    constr:    0.0000
     atom:   16    charge:    1.8281    magn:    0.0000    constr:    0.0000
     atom:   17    charge:    1.8228    magn:    0.0000    constr:    0.0000
     atom:   18    charge:    1.8228    magn:    0.0000    constr:    0.0000
     atom:   19    charge:    1.8281    magn:    0.0000    constr:    0.0000
     atom:   20    charge:    1.8188    magn:    0.0000    constr:    0.0000
     atom:   21    charge:    1.8129    magn:    0.0000    constr:    0.0000
     atom:   22    charge:    1.8129    magn:    0.0000    constr:    0.0000
     atom:   23    charge:    1.8189    magn:    0.0000    constr:    0.0000
     atom:   24    charge:    1.7994    magn:   -0.0001    constr:    0.0000
     atom:   25    charge:    1.8228    magn:    0.0000    constr:    0.0000
     atom:   26    charge:    1.8188    magn:    0.0000    constr:    0.0000
     atom:   27    charge:    1.8129    magn:    0.0000    constr:    0.0000
     atom:   28    charge:    1.8228    magn:    0.0000    constr:    0.0000
     atom:   29    charge:    1.8281    magn:    0.0000    constr:    0.0000
     atom:   30    charge:    1.7994    magn:   -0.0001    constr:    0.0000
     atom:   31    charge:    1.8129    magn:    0.0000    constr:    0.0000
     atom:   32    charge:    1.8186    magn:    0.0000    constr:    0.0000
     atom:   33    charge:    1.8255    magn:    0.0000    constr:    0.0000
     atom:   34    charge:    1.8172    magn:    0.0000    constr:    0.0000
     atom:   35    charge:    1.8201    magn:    0.0000    constr:    0.0000
     atom:   36    charge:    1.8172    magn:    0.0000    constr:    0.0000
     atom:   37    charge:    1.8201    magn:    0.0000    constr:    0.0000
     atom:   38    charge:    1.8200    magn:    0.0000    constr:    0.0000
     atom:   39    charge:    1.8172    magn:    0.0000    constr:    0.0000
     atom:   40    charge:    1.8218    magn:    0.0000    constr:    0.0000
     atom:   41    charge:    1.8298    magn:    0.0000    constr:    0.0000
     atom:   42    charge:    1.8167    magn:    0.0000    constr:    0.0000
     atom:   43    charge:    1.8150    magn:    0.0000    constr:    0.0000
     atom:   44    charge:    1.8167    magn:    0.0000    constr:    0.0000
     atom:   45    charge:    1.8150    magn:    0.0000    constr:    0.0000
     atom:   46    charge:    1.8167    magn:    0.0000    constr:    0.0000
     atom:   47    charge:    1.8186    magn:    0.0000    constr:    0.0000
     atom:   48    charge:    1.8298    magn:    0.0000    constr:    0.0000
     atom:   49    charge:    1.8150    magn:    0.0000    constr:    0.0000
     atom:   50    charge:    1.8150    magn:    0.0000    constr:    0.0000
     atom:   51    charge:    1.8255    magn:    0.0000    constr:    0.0000
     atom:   52    charge:    1.8218    magn:    0.0000    constr:    0.0000
     atom:   53    charge:    1.8167    magn:    0.0000    constr:    0.0000
     atom:   54    charge:    1.8167    magn:    0.0000    constr:    0.0000
     atom:   55    charge:    1.8186    magn:    0.0000    constr:    0.0000
     atom:   56    charge:    1.8298    magn:    0.0000    constr:    0.0000
     atom:   57    charge:    1.8150    magn:    0.0000    constr:    0.0000
     atom:   58    charge:    1.8218    magn:    0.0000    constr:    0.0000
     atom:   59    charge:    1.8167    magn:    0.0000    constr:    0.0000
     atom:   60    charge:    1.8150    magn:    0.0000    constr:    0.0000
     atom:   61    charge:    1.8255    magn:    0.0000    constr:    0.0000
     atom:   62    charge:    1.8189    magn:    0.0000    constr:    0.0000
     atom:   63    charge:    2.9129    magn:    0.0006    constr:    0.0000

     total cpu time spent up to now is       31.0 secs

     End of self-consistent calculation

 ------ SPIN UP ------------


          k = 0.0000 0.0000 0.0000 ( 24207 PWs)   bands (ev):

    -8.5631  -6.9837  -6.2735  -6.2735  -6.1598  -6.1598  -5.8849  -4.9407
    -4.1341  -4.1341  -4.1064  -4.1064  -4.0239  -4.0239  -3.9904  -3.9382
    -3.8729  -3.8729  -3.3598  -2.9697  -2.6750  -2.6750  -2.0849  -0.3813
    -0.3813  -0.3524  -0.3196  -0.1019   0.1660   0.1660   0.2800   0.2800
     0.3517   0.5903   0.8026   0.8026   0.9656   0.9656   1.0020   1.0113
     1.0113   1.0444   1.3285   1.3285   3.0472   3.8878   3.8878   4.0196
     4.2087   4.2122   4.2122   4.2161   4.2540   4.2540   4.4111   4.4111
     4.4620   4.4620   4.5771   4.6336   4.6336   4.6373   4.6491   4.7346
     4.7346   4.8678   4.9282   4.9282   5.0431   5.2030   5.2030   5.2600
     5.3216   5.3216   5.3610   5.3952   5.3952   6.0033   6.0033   6.0253
     6.5896   6.5896   6.7080   6.9682   7.0129   7.0129   7.5068   8.2950
     8.2950   8.3638   8.4394   8.4394   8.6159   8.6159   8.7723   8.7855
     8.7865   8.7865   8.8413   8.8413   8.8747   9.2292   9.2354   9.2354
     9.6592   9.6592   9.8636   9.8722   9.8722   9.8871   9.9148   9.9411
     9.9411   9.9413   9.9697   9.9697  10.0742  10.0742  10.2196  10.2196
    10.2919  11.0497  12.2474  12.4417  12.4417  13.8871  15.3037  15.3037
    17.3136  17.3360  17.3360  17.5011  17.5173  17.5173  17.8193  17.8764
    17.8764  17.9620  17.9620  18.3435  18.8934  18.8934  18.9243  20.6353
    20.7612  20.7612  20.8035  20.8873  20.8874  20.9636  20.9637  21.0027

     occupation numbers 
     1.0000   1.0000   1.0000   1.0000   1.0000   1.0000   1.0000   1.0000
     1.0000   1.0000   1.0000   1.0000   1.0000   1.0000   1.0000   1.0000
     1.0000   1.0000   1.0000   1.0000   1.0000   1.0000   1.0000   1.0000
     1.0000   1.0000   1.0000   1.0000   1.0000   1.0000   1.0000   1.0000
     1.0000   1.0000   1.0000   1.0000   1.0000   1.0000   1.0000   1.0000
     1.0000   1.0000   1.0000   1.0000   1.0000   1.0000   1.0000   1.0000
     1.0000   1.0000   1.0000   1.0000   1.0000   1.0000   1.0000   1.0000
     1.0000   1.0000   1.0000   1.0000   1.0000   1.0000   1.0000   1.0000
     1.0000   1.0000   1.0000   1.0000   1.0000   1.0000   1.0000   1.0000
     1.0000   1.0000   1.0000   1.0000   1.0000   1.0000   1.0000   1.0000
     1.0000   1.0000   1.0000   1.0000   1.0000   1.0000   1.0000   1.0000
     1.0000   1.0000   1.0000   1.0000   1.0000   1.0000   1.0000   1.0000
     1.0000   1.0000   1.0000   1.0000   1.0000   1.0000   1.0000   1.0000
     1.0000   1.0000   1.0000   1.0000   1.0000   1.0000   1.0000   1.0000
     1.0000   1.0000   1.0000   1.0000   1.0000   1.0000   1.0000   1.0000
     1.0000   1.0000   1.0000   1.0000   1.0000   1.0000   0.0000   0.0000
     0.0000   0.0000   0.0000   0.0000   0.0000   0.0000   0.0000   0.0000
     0.0000   0.0000   0.0000   0.0000   0.0000   0.0000   0.0000   0.0000
     0.0000   0.0000   0.0000   0.0000   0.0000   0.0000   0.0000   0.0000

          k = 0.0000 0.0000 0.3333 ( 24280 PWs)   bands (ev):

    -8.3350  -7.5640  -6.5797  -6.0283  -5.9197  -5.8164  -5.4932  -5.2873
    -5.1633  -4.9754  -4.5115  -4.1279  -3.7991  -3.7899  -3.6793  -3.4416
    -3.1948  -3.1477  -2.9244  -2.6022  -2.4988  -2.3778  -2.3195  -1.7713
    -0.8406  -0.6870  -0.5751  -0.3386   0.1732   0.2571   0.3722   0.4074
     0.4780   0.5639   0.5758   0.6644   0.7261   0.7429   0.9911   1.4782
     1.9862   2.0149   2.1613   2.2274   2.4230   2.4828   2.4904   2.7502
     2.9477   3.0039   3.1683   3.1778   3.8926   3.9681   4.0575   4.0696
     4.2986   4.3693   4.5080   4.5547   5.0752   5.1066   5.1422   5.2082
     5.2152   5.5877   5.6160   5.7168   5.7551   6.0656   6.1089   6.1880
     6.1959   6.3267   6.3956   6.4607   6.5136   6.6183   6.6252   6.7464
     6.7708   6.8884   6.9137   6.9398   7.1505   7.1582   7.1842   7.2707
     7.4107   7.4828   7.6767   7.7745   7.8252   8.0615   8.1409   8.2822
     8.3077   8.4487   8.6734   8.7175   8.7712   9.0986   9.2005   9.3455
     9.3828   9.6274   9.6609   9.7132   9.7950   9.9244   9.9352   9.9639
     9.9679  10.0289  10.1088  10.1118  10.1889  10.2680  10.2683  10.3621
    10.3730  11.3687  11.7154  11.7174  12.0307  13.6163  14.9931  15.1658
    17.1890  17.3018  17.9552  18.3262  18.3556  18.4942  18.5052  18.6104
    18.8237  18.8300  18.9689  19.0805  19.2103  19.8315  19.8617  20.5059
    20.6630  20.6893  20.7856  20.7956  20.8273  20.8735  20.9098  20.9408

     occupation numbers 
     1.0000   1.0000   1.0000   1.0000   1.0000   1.0000   1.0000   1.0000
     1.0000   1.0000   1.0000   1.0000   1.0000   1.0000   1.0000   1.0000
     1.0000   1.0000   1.0000   1.0000   1.0000   1.0000   1.0000   1.0000
     1.0000   1.0000   1.0000   1.0000   1.0000   1.0000   1.0000   1.0000
     1.0000   1.0000   1.0000   1.0000   1.0000   1.0000   1.0000   1.0000
     1.0000   1.0000   1.0000   1.0000   1.0000   1.0000   1.0000   1.0000
     1.0000   1.0000   1.0000   1.0000   1.0000   1.0000   1.0000   1.0000
     1.0000   1.0000   1.0000   1.0000   1.0000   1.0000   1.0000   1.0000
     1.0000   1.0000   1.0000   1.0000   1.0000   1.0000   1.0000   1.0000
     1.0000   1.0000   1.0000   1.0000   1.0000   1.0000   1.0000   1.0000
     1.0000   1.0000   1.0000   1.0000   1.0000   1.0000   1.0000   1.0000
     1.0000   1.0000   1.0000   1.0000   1.0000   1.0000   1.0000   1.0000
     1.0000   1.0000   1.0000   1.0000   1.0000   1.0000   1.0000   1.0000
     1.0000   1.0000   1.0000   1.0000   1.0000   1.0000   1.0000   1.0000
     1.0000   1.0000   1.0000   1.0000   1.0000   1.0000   1.0000   1.0000
     1.0000   1.0000   1.0000   1.0000   1.0000   1.0000   1.0000   0.0000
     0.0000   0.0000   0.0000   0.0000   0.0000   0.0000   0.0000   0.0000
     0.0000   0.0000   0.0000   0.0000   0.0000   0.0000   0.0000   0.0000
     0.0000   0.0000   0.0000   0.0000   0.0000   0.0000   0.0000   0.0000

          k = 0.0000 0.3333 0.3333 ( 24236 PWs)   bands (ev):

    -8.1227  -7.3900  -7.2218  -6.5720  -5.9583  -5.6620  -5.3309  -5.0029
    -4.9882  -4.8409  -4.4908  -4.2508  -4.2158  -3.9328  -3.5353  -3.5059
    -2.7733  -2.3685  -2.3288  -2.3149  -2.1936  -2.1858  -2.0406  -1.8782
    -1.4834  -1.3156  -1.0905  -0.9156  -0.5340  -0.0267   0.0616   0.1335
     0.1827   0.4833   0.6915   1.1910   1.2092   1.3190   1.3885   1.3994
     1.4534   1.4646   1.9479   2.0647   2.1384   2.4057   2.7276   2.8248
     2.9748   3.5130   3.6547   3.7005   3.7796   3.8202   3.9749   4.0482
     4.1295   4.5509   4.6776   4.8248   5.0418   5.0452   5.1459   5.3007
     5.3432   5.5937   5.6571   5.6924   5.7510   5.9740   6.0296   6.0801
     6.1454   6.2390   6.2811   6.4898   6.5480   6.6045   6.6593   6.8591
     6.9222   6.9526   7.0451   7.0523   7.2320   7.2927   7.4988   7.7054
     7.9387   7.9482   8.0731   8.0991   8.1216   8.2271   8.2675   8.3383
     8.3528   8.4079   8.5340   8.6456   8.6980   8.7049   8.8438   8.9008
     9.0852   9.2068   9.2436   9.3136   9.4716   9.4793   9.5780   9.6426
     9.7110   9.7905   9.9117  10.0465  10.0555  10.1356  10.4397  10.7579
    11.0152  11.2153  11.5497  11.8546  12.2328  13.4161  14.9261  15.2325
    18.0876  18.1930  18.2230  18.3057  18.3629  18.8367  18.8544  19.0037
    19.1811  19.2279  19.4407  19.4807  19.7001  19.8212  19.9714  20.0221
    20.1984  20.4483  20.4815  20.5049  20.5651  20.6029  20.6149  20.6537

     occupation numbers 
     1.0000   1.0000   1.0000   1.0000   1.0000   1.0000   1.0000   1.0000
     1.0000   1.0000   1.0000   1.0000   1.0000   1.0000   1.0000   1.0000
     1.0000   1.0000   1.0000   1.0000   1.0000   1.0000   1.0000   1.0000
     1.0000   1.0000   1.0000   1.0000   1.0000   1.0000   1.0000   1.0000
     1.0000   1.0000   1.0000   1.0000   1.0000   1.0000   1.0000   1.0000
     1.0000   1.0000   1.0000   1.0000   1.0000   1.0000   1.0000   1.0000
     1.0000   1.0000   1.0000   1.0000   1.0000   1.0000   1.0000   1.0000
     1.0000   1.0000   1.0000   1.0000   1.0000   1.0000   1.0000   1.0000
     1.0000   1.0000   1.0000   1.0000   1.0000   1.0000   1.0000   1.0000
     1.0000   1.0000   1.0000   1.0000   1.0000   1.0000   1.0000   1.0000
     1.0000   1.0000   1.0000   1.0000   1.0000   1.0000   1.0000   1.0000
     1.0000   1.0000   1.0000   1.0000   1.0000   1.0000   1.0000   1.0000
     1.0000   1.0000   1.0000   1.0000   1.0000   1.0000   1.0000   1.0000
     1.0000   1.0000   1.0000   1.0000   1.0000   1.0000   1.0000   1.0000
     1.0000   1.0000   1.0000   1.0000   1.0000   1.0000   1.0000   1.0000
     1.0000   1.0000   1.0000   1.0000   1.0000   1.0000   1.0000   0.0000
     0.0000   0.0000   0.0000   0.0000   0.0000   0.0000   0.0000   0.0000
     0.0000   0.0000   0.0000   0.0000   0.0000   0.0000   0.0000   0.0000
     0.0000   0.0000   0.0000   0.0000   0.0000   0.0000   0.0000   0.0000

          k = 0.3333 0.3333 0.3333 ( 24303 PWs)   bands (ev):

    -7.9312  -7.2191  -6.9735  -6.9735  -6.2964  -6.2153  -6.2153  -5.4504
    -4.2002  -4.0253  -4.0253  -3.5278  -3.3817  -3.3817  -3.3245  -3.3245
    -3.2870  -2.8997  -2.6670  -2.6670  -1.9439  -1.9046  -1.9046  -1.5345
    -1.4480  -1.4480  -1.3997  -1.3997  -1.3203  -1.2180  -1.2180   0.0737
     0.8439   0.8439   0.9779   0.9950   0.9950   1.3054   1.8428   1.8428
     1.8761   1.9072   2.0074   2.0074   2.5992   2.5992   2.6005   2.7093
     2.7376   2.7376   3.1466   3.1466   3.5401   4.0828   4.2935   4.2935
     4.8083   4.9255   4.9255   4.9684   5.0923   5.0923   5.1532   5.3085
     5.3085   5.3950   5.5132   5.5132   5.5767   5.5767   5.6249   6.3868
     6.7246   6.7246   6.9693   7.0069   7.0069   7.0073   7.0986   7.0986
     7.1995   7.1995   7.2507   7.2554   7.2678   7.2678   7.3702   7.3702
     7.3854   7.4991   7.7291   7.7291   7.9230   7.9230   7.9557   8.0077
     8.1890   8.1890   8.2927   8.3026   8.3026   8.4455   8.4495   8.4495
     8.6864   8.6864   8.8567   9.0809   9.1091   9.5427   9.5427   9.7898
     9.7898  10.4897  10.4897  10.5201  10.5800  10.9573  10.9573  11.2625
    11.2625  11.3115  11.4771  11.6687  11.6687  13.3310  15.2258  15.2258
    18.1614  18.2432  18.2432  18.4726  18.6400  18.6400  19.2563  19.3982
    19.3982  19.5474  19.5474  19.5738  19.6328  19.6328  19.6873  19.7415
    19.7416  19.8619  19.9207  19.9208  20.0074  20.0078  20.0274  20.1716

     occupation numbers 
     1.0000   1.0000   1.0000   1.0000   1.0000   1.0000   1.0000   1.0000
     1.0000   1.0000   1.0000   1.0000   1.0000   1.0000   1.0000   1.0000
     1.0000   1.0000   1.0000   1.0000   1.0000   1.0000   1.0000   1.0000
     1.0000   1.0000   1.0000   1.0000   1.0000   1.0000   1.0000   1.0000
     1.0000   1.0000   1.0000   1.0000   1.0000   1.0000   1.0000   1.0000
     1.0000   1.0000   1.0000   1.0000   1.0000   1.0000   1.0000   1.0000
     1.0000   1.0000   1.0000   1.0000   1.0000   1.0000   1.0000   1.0000
     1.0000   1.0000   1.0000   1.0000   1.0000   1.0000   1.0000   1.0000
     1.0000   1.0000   1.0000   1.0000   1.0000   1.0000   1.0000   1.0000
     1.0000   1.0000   1.0000   1.0000   1.0000   1.0000   1.0000   1.0000
     1.0000   1.0000   1.0000   1.0000   1.0000   1.0000   1.0000   1.0000
     1.0000   1.0000   1.0000   1.0000   1.0000   1.0000   1.0000   1.0000
     1.0000   1.0000   1.0000   1.0000   1.0000   1.0000   1.0000   1.0000
     1.0000   1.0000   1.0000   1.0000   1.0000   1.0000   1.0000   1.0000
     1.0000   1.0000   1.0000   1.0000   1.0000   1.0000   1.0000   1.0000
     1.0000   1.0000   1.0000   1.0000   1.0000   1.0000   0.0000   0.0000
     0.0000   0.0000   0.0000   0.0000   0.0000   0.0000   0.0000   0.0000
     0.0000   0.0000   0.0000   0.0000   0.0000   0.0000   0.0000   0.0000
     0.0000   0.0000   0.0000   0.0000   0.0000   0.0000   0.0000   0.0000

          k =-0.3333 0.0000 0.3333 ( 24236 PWs)   bands (ev):

    -8.1087  -7.5055  -7.0981  -6.5578  -5.9992  -5.6681  -5.3648  -5.0285
    -4.9259  -4.7582  -4.5119  -4.2944  -4.2243  -4.0386  -3.5831  -3.3289
    -2.7633  -2.4025  -2.3599  -2.2865  -2.1920  -2.1663  -2.0926  -1.6551
    -1.6346  -1.3082  -1.1107  -0.9862  -0.5842   0.0107   0.0773   0.1182
     0.2755   0.4979   0.8854   1.0559   1.2084   1.2254   1.2552   1.3981
     1.4861   1.5815   1.8684   1.9069   2.1383   2.5933   2.6824   2.8683
     2.9516   3.5046   3.6553   3.7143   3.7893   3.8942   4.0269   4.1167
     4.1778   4.3994   4.6212   4.8123   4.9698   5.0202   5.1858   5.2527
     5.4251   5.5693   5.6483   5.6930   5.7989   6.0362   6.0844   6.1367
     6.1811   6.2231   6.2742   6.4347   6.4775   6.6209   6.6436   6.8172
     6.8924   6.9687   7.0168   7.0988   7.2363   7.3897   7.5084   7.6801
     7.8513   7.8940   7.9695   8.0862   8.1799   8.2145   8.2622   8.2884
     8.3783   8.4377   8.5550   8.5944   8.7388   8.7548   8.8967   8.9575
     9.0804   9.1402   9.2338   9.3245   9.4524   9.4988   9.5224   9.6629
     9.7364   9.7545   9.9445  10.0302  10.0750  10.0952  10.5114  10.8830
    10.9812  11.1546  11.5096  11.7636  12.2336  13.6724  14.8424  15.1240
    18.0648  18.2010  18.2657  18.3150  18.3664  18.8046  18.9226  19.0953
    19.1532  19.2808  19.3531  19.4905  19.6965  19.8402  19.8960  20.0314
    20.2517  20.3673  20.4305  20.5246  20.5586  20.5996  20.6404  20.6800

     occupation numbers 
     1.0000   1.0000   1.0000   1.0000   1.0000   1.0000   1.0000   1.0000
     1.0000   1.0000   1.0000   1.0000   1.0000   1.0000   1.0000   1.0000
     1.0000   1.0000   1.0000   1.0000   1.0000   1.0000   1.0000   1.0000
     1.0000   1.0000   1.0000   1.0000   1.0000   1.0000   1.0000   1.0000
     1.0000   1.0000   1.0000   1.0000   1.0000   1.0000   1.0000   1.0000
     1.0000   1.0000   1.0000   1.0000   1.0000   1.0000   1.0000   1.0000
     1.0000   1.0000   1.0000   1.0000   1.0000   1.0000   1.0000   1.0000
     1.0000   1.0000   1.0000   1.0000   1.0000   1.0000   1.0000   1.0000
     1.0000   1.0000   1.0000   1.0000   1.0000   1.0000   1.0000   1.0000
     1.0000   1.0000   1.0000   1.0000   1.0000   1.0000   1.0000   1.0000
     1.0000   1.0000   1.0000   1.0000   1.0000   1.0000   1.0000   1.0000
     1.0000   1.0000   1.0000   1.0000   1.0000   1.0000   1.0000   1.0000
     1.0000   1.0000   1.0000   1.0000   1.0000   1.0000   1.0000   1.0000
     1.0000   1.0000   1.0000   1.0000   1.0000   1.0000   1.0000   1.0000
     1.0000   1.0000   1.0000   1.0000   1.0000   1.0000   1.0000   1.0000
     1.0000   1.0000   1.0000   1.0000   1.0000   1.0000   1.0000   0.5000
     0.0000   0.0000   0.0000   0.0000   0.0000   0.0000   0.0000   0.0000
     0.0000   0.0000   0.0000   0.0000   0.0000   0.0000   0.0000   0.0000
     0.0000   0.0000   0.0000   0.0000   0.0000   0.0000   0.0000   0.0000

          k = 0.3333-0.3333 0.3333 ( 24303 PWs)   bands (ev):

    -7.9049  -7.3581  -6.9740  -6.8225  -6.4650  -6.2142  -5.9804  -5.4894
    -4.4873  -4.0275  -3.9333  -3.7049  -3.4058  -3.3586  -3.3119  -3.2131
    -3.0727  -2.8841  -2.6867  -2.4232  -2.0603  -1.8833  -1.8501  -1.7148
    -1.4862  -1.4588  -1.4190  -1.3544  -1.3533  -1.2606  -1.1702  -0.0510
     0.7563   0.8829   0.9652   0.9986   1.0640   1.4211   1.7430   1.7831
     1.8608   1.9444   2.0469   2.2448   2.5790   2.6164   2.6880   2.7062
     2.7260   2.7825   2.9227   3.1800   3.5119   3.9946   4.2378   4.3158
     4.8239   4.8260   4.8599   5.0134   5.0262   5.0729   5.1996   5.2592
     5.2859   5.4411   5.4460   5.5038   5.6855   5.7760   5.8323   6.4607
     6.6985   6.7584   6.9241   6.9317   6.9720   7.0527   7.0740   7.0984
     7.1678   7.1934   7.2376   7.2671   7.2731   7.3201   7.3343   7.3560
     7.3825   7.4624   7.7378   7.7470   7.8280   7.9309   7.9547   7.9651
     8.1330   8.1593   8.2742   8.2891   8.3796   8.3909   8.4134   8.4946
     8.7035   8.7353   8.9714   8.9852   9.1218   9.5330   9.5965   9.6967
     9.8893  10.4062  10.5165  10.5260  10.5558  10.9349  10.9463  11.2064
    11.2275  11.2998  11.4501  11.7213  11.7420  13.6980  14.9100  15.2133
    18.1273  18.2584  18.3414  18.5449  18.6586  18.7259  19.2127  19.3970
    19.4321  19.5105  19.5349  19.5541  19.6089  19.6296  19.6625  19.7319
    19.7422  19.7943  19.9184  19.9230  19.9943  20.0000  20.0438  20.1551

     occupation numbers 
     1.0000   1.0000   1.0000   1.0000   1.0000   1.0000   1.0000   1.0000
     1.0000   1.0000   1.0000   1.0000   1.0000   1.0000   1.0000   1.0000
     1.0000   1.0000   1.0000   1.0000   1.0000   1.0000   1.0000   1.0000
     1.0000   1.0000   1.0000   1.0000   1.0000   1.0000   1.0000   1.0000
     1.0000   1.0000   1.0000   1.0000   1.0000   1.0000   1.0000   1.0000
     1.0000   1.0000   1.0000   1.0000   1.0000   1.0000   1.0000   1.0000
     1.0000   1.0000   1.0000   1.0000   1.0000   1.0000   1.0000   1.0000
     1.0000   1.0000   1.0000   1.0000   1.0000   1.0000   1.0000   1.0000
     1.0000   1.0000   1.0000   1.0000   1.0000   1.0000   1.0000   1.0000
     1.0000   1.0000   1.0000   1.0000   1.0000   1.0000   1.0000   1.0000
     1.0000   1.0000   1.0000   1.0000   1.0000   1.0000   1.0000   1.0000
     1.0000   1.0000   1.0000   1.0000   1.0000   1.0000   1.0000   1.0000
     1.0000   1.0000   1.0000   1.0000   1.0000   1.0000   1.0000   1.0000
     1.0000   1.0000   1.0000   1.0000   1.0000   1.0000   1.0000   1.0000
     1.0000   1.0000   1.0000   1.0000   1.0000   1.0000   1.0000   1.0000
     1.0000   1.0000   1.0000   1.0000   1.0000   1.0000   1.0000   0.0000
     0.0000   0.0000   0.0000   0.0000   0.0000   0.0000   0.0000   0.0000
     0.0000   0.0000   0.0000   0.0000   0.0000   0.0000   0.0000   0.0000
     0.0000   0.0000   0.0000   0.0000   0.0000   0.0000   0.0000   0.0000

 ------ SPIN DOWN ----------


          k = 0.0000 0.0000 0.0000 ( 24207 PWs)   bands (ev):

    -8.5632  -6.9831  -6.2736  -6.2736  -6.1599  -6.1599  -5.8850  -4.9403
    -4.1342  -4.1342  -4.1066  -4.1066  -4.0240  -4.0240  -3.9905  -3.9383
    -3.8730  -3.8730  -3.3599  -2.9696  -2.6752  -2.6752  -2.0849  -0.3815
    -0.3815  -0.3526  -0.3198  -0.1017   0.1659   0.1659   0.2799   0.2799
     0.3516   0.5904   0.8025   0.8025   0.9655   0.9655   1.0019   1.0112
     1.0112   1.0444   1.3285   1.3285   3.0471   3.8879   3.8879   4.0196
     4.2087   4.2121   4.2121   4.2161   4.2540   4.2540   4.4110   4.4110
     4.4619   4.4619   4.5770   4.6334   4.6334   4.6373   4.6490   4.7346
     4.7346   4.8678   4.9281   4.9281   5.0430   5.2030   5.2030   5.2600
     5.3215   5.3215   5.3609   5.3951   5.3951   6.0032   6.0032   6.0253
     6.5896   6.5896   6.7079   6.9682   7.0129   7.0129   7.5068   8.2952
     8.2952   8.3638   8.4394   8.4394   8.6159   8.6159   8.7723   8.7855
     8.7865   8.7865   8.8412   8.8412   8.8747   9.2292   9.2354   9.2354
     9.6593   9.6593   9.8636   9.8722   9.8722   9.8871   9.9148   9.9411
     9.9411   9.9413   9.9697   9.9697  10.0742  10.0742  10.2196  10.2196
    10.2919  11.0501  12.2475  12.4417  12.4417  13.8880  15.3037  15.3037
    17.3136  17.3360  17.3360  17.5011  17.5173  17.5173  17.8193  17.8763
    17.8763  17.9620  17.9620  18.3434  18.8934  18.8934  18.9244  20.6355
    20.7611  20.7611  20.8035  20.8874  20.8874  20.9636  20.9637  21.0024

     occupation numbers 
     1.0000   1.0000   1.0000   1.0000   1.0000   1.0000   1.0000   1.0000
     1.0000   1.0000   1.0000   1.0000   1.0000   1.0000   1.0000   1.0000
     1.0000   1.0000   1.0000   1.0000   1.0000   1.0000   1.0000   1.0000
     1.0000   1.0000   1.0000   1.0000   1.0000   1.0000   1.0000   1.0000
     1.0000   1.0000   1.0000   1.0000   1.0000   1.0000   1.0000   1.0000
     1.0000   1.0000   1.0000   1.0000   1.0000   1.0000   1.0000   1.0000
     1.0000   1.0000   1.0000   1.0000   1.0000   1.0000   1.0000   1.0000
     1.0000   1.0000   1.0000   1.0000   1.0000   1.0000   1.0000   1.0000
     1.0000   1.0000   1.0000   1.0000   1.0000   1.0000   1.0000   1.0000
     1.0000   1.0000   1.0000   1.0000   1.0000   1.0000   1.0000   1.0000
     1.0000   1.0000   1.0000   1.0000   1.0000   1.0000   1.0000   1.0000
     1.0000   1.0000   1.0000   1.0000   1.0000   1.0000   1.0000   1.0000
     1.0000   1.0000   1.0000   1.0000   1.0000   1.0000   1.0000   1.0000
     1.0000   1.0000   1.0000   1.0000   1.0000   1.0000   1.0000   1.0000
     1.0000   1.0000   1.0000   1.0000   1.0000   1.0000   1.0000   1.0000
     1.0000   1.0000   1.0000   1.0000   1.0000   1.0000   0.0000   0.0000
     0.0000   0.0000   0.0000   0.0000   0.0000   0.0000   0.0000   0.0000
     0.0000   0.0000   0.0000   0.0000   0.0000   0.0000   0.0000   0.0000
     0.0000   0.0000   0.0000   0.0000   0.0000   0.0000   0.0000   0.0000

          k = 0.0000 0.0000 0.3333 ( 24280 PWs)   bands (ev):

    -8.3350  -7.5640  -6.5793  -6.0284  -5.9198  -5.8165  -5.4932  -5.2875
    -5.1635  -4.9755  -4.5116  -4.1278  -3.7992  -3.7900  -3.6795  -3.4416
    -3.1949  -3.1478  -2.9245  -2.6023  -2.4989  -2.3779  -2.3196  -1.7713
    -0.8406  -0.6872  -0.5752  -0.3386   0.1732   0.2570   0.3721   0.4073
     0.4779   0.5638   0.5757   0.6643   0.7260   0.7429   0.9910   1.4781
     1.9862   2.0149   2.1612   2.2274   2.4229   2.4827   2.4903   2.7502
     2.9477   3.0038   3.1683   3.1778   3.8925   3.9680   4.0574   4.0695
     4.2985   4.3692   4.5079   4.5546   5.0752   5.1066   5.1422   5.2081
     5.2151   5.5877   5.6159   5.7168   5.7551   6.0656   6.1089   6.1879
     6.1959   6.3266   6.3956   6.4606   6.5135   6.6183   6.6252   6.7463
     6.7708   6.8884   6.9137   6.9398   7.1505   7.1582   7.1841   7.2707
     7.4107   7.4827   7.6768   7.7745   7.8252   8.0614   8.1410   8.2821
     8.3077   8.4486   8.6734   8.7175   8.7712   9.0986   9.2005   9.3456
     9.3828   9.6275   9.6609   9.7132   9.7950   9.9243   9.9352   9.9639
     9.9679  10.0289  10.1088  10.1118  10.1889  10.2680  10.2684  10.3621
    10.3730  11.3692  11.7154  11.7173  12.0308  13.6171  14.9930  15.1657
    17.1889  17.3018  17.9553  18.3262  18.3556  18.4942  18.5052  18.6105
    18.8238  18.8300  18.9689  19.0804  19.2103  19.8317  19.8619  20.5061
    20.6630  20.6893  20.7857  20.7956  20.8273  20.8735  20.9099  20.9409

     occupation numbers 
     1.0000   1.0000   1.0000   1.0000   1.0000   1.0000   1.0000   1.0000
     1.0000   1.0000   1.0000   1.0000   1.0000   1.0000   1.0000   1.0000
     1.0000   1.0000   1.0000   1.0000   1.0000   1.0000   1.0000   1.0000
     1.0000   1.0000   1.0000   1.0000   1.0000   1.0000   1.0000   1.0000
     1.0000   1.0000   1.0000   1.0000   1.0000   1.0000   1.0000   1.0000
     1.0000   1.0000   1.0000   1.0000   1.0000   1.0000   1.0000   1.0000
     1.0000   1.0000   1.0000   1.0000   1.0000   1.0000   1.0000   1.0000
     1.0000   1.0000   1.0000   1.0000   1.0000   1.0000   1.0000   1.0000
     1.0000   1.0000   1.0000   1.0000   1.0000   1.0000   1.0000   1.0000
     1.0000   1.0000   1.0000   1.0000   1.0000   1.0000   1.0000   1.0000
     1.0000   1.0000   1.0000   1.0000   1.0000   1.0000   1.0000   1.0000
     1.0000   1.0000   1.0000   1.0000   1.0000   1.0000   1.0000   1.0000
     1.0000   1.0000   1.0000   1.0000   1.0000   1.0000   1.0000   1.0000
     1.0000   1.0000   1.0000   1.0000   1.0000   1.0000   1.0000   1.0000
     1.0000   1.0000   1.0000   1.0000   1.0000   1.0000   1.0000   1.0000
     1.0000   1.0000   1.0000   1.0000   1.0000   1.0000   1.0000   0.0000
     0.0000   0.0000   0.0000   0.0000   0.0000   0.0000   0.0000   0.0000
     0.0000   0.0000   0.0000   0.0000   0.0000   0.0000   0.0000   0.0000
     0.0000   0.0000   0.0000   0.0000   0.0000   0.0000   0.0000   0.0000

          k = 0.0000 0.3333 0.3333 ( 24236 PWs)   bands (ev):

    -8.1227  -7.3899  -7.2220  -6.5719  -5.9582  -5.6621  -5.3308  -5.0031
    -4.9883  -4.8411  -4.4908  -4.2509  -4.2159  -3.9329  -3.5353  -3.5060
    -2.7732  -2.3686  -2.3289  -2.3150  -2.1937  -2.1859  -2.0408  -1.8782
    -1.4835  -1.3158  -1.0905  -0.9156  -0.5341  -0.0267   0.0615   0.1334
     0.1826   0.4832   0.6914   1.1909   1.2091   1.3189   1.3884   1.3993
     1.4533   1.4646   1.9479   2.0646   2.1383   2.4056   2.7276   2.8248
     2.9748   3.5129   3.6546   3.7005   3.7795   3.8202   3.9749   4.0481
     4.1294   4.5508   4.6775   4.8247   5.0417   5.0452   5.1458   5.3007
     5.3432   5.5936   5.6570   5.6924   5.7509   5.9741   6.0296   6.0800
     6.1453   6.2390   6.2811   6.4898   6.5479   6.6045   6.6592   6.8591
     6.9222   6.9526   7.0451   7.0523   7.2320   7.2927   7.4988   7.7054
     7.9386   7.9482   8.0731   8.0991   8.1216   8.2271   8.2675   8.3383
     8.3528   8.4079   8.5340   8.6456   8.6980   8.7049   8.8438   8.9008
     9.0853   9.2068   9.2435   9.3136   9.4716   9.4793   9.5780   9.6426
     9.7110   9.7905   9.9117  10.0465  10.0555  10.1357  10.4398  10.7580
    11.0152  11.2154  11.5497  11.8548  12.2329  13.4168  14.9260  15.2324
    18.0876  18.1929  18.2230  18.3057  18.3628  18.8368  18.8545  19.0038
    19.1812  19.2280  19.4406  19.4807  19.7001  19.8212  19.9713  20.0223
    20.1985  20.4484  20.4816  20.5050  20.5652  20.6030  20.6149  20.6538

     occupation numbers 
     1.0000   1.0000   1.0000   1.0000   1.0000   1.0000   1.0000   1.0000
     1.0000   1.0000   1.0000   1.0000   1.0000   1.0000   1.0000   1.0000
     1.0000   1.0000   1.0000   1.0000   1.0000   1.0000   1.0000   1.0000
     1.0000   1.0000   1.0000   1.0000   1.0000   1.0000   1.0000   1.0000
     1.0000   1.0000   1.0000   1.0000   1.0000   1.0000   1.0000   1.0000
     1.0000   1.0000   1.0000   1.0000   1.0000   1.0000   1.0000   1.0000
     1.0000   1.0000   1.0000   1.0000   1.0000   1.0000   1.0000   1.0000
     1.0000   1.0000   1.0000   1.0000   1.0000   1.0000   1.0000   1.0000
     1.0000   1.0000   1.0000   1.0000   1.0000   1.0000   1.0000   1.0000
     1.0000   1.0000   1.0000   1.0000   1.0000   1.0000   1.0000   1.0000
     1.0000   1.0000   1.0000   1.0000   1.0000   1.0000   1.0000   1.0000
     1.0000   1.0000   1.0000   1.0000   1.0000   1.0000   1.0000   1.0000
     1.0000   1.0000   1.0000   1.0000   1.0000   1.0000   1.0000   1.0000
     1.0000   1.0000   1.0000   1.0000   1.0000   1.0000   1.0000   1.0000
     1.0000   1.0000   1.0000   1.0000   1.0000   1.0000   1.0000   1.0000
     1.0000   1.0000   1.0000   1.0000   1.0000   1.0000   1.0000   0.0000
     0.0000   0.0000   0.0000   0.0000   0.0000   0.0000   0.0000   0.0000
     0.0000   0.0000   0.0000   0.0000   0.0000   0.0000   0.0000   0.0000
     0.0000   0.0000   0.0000   0.0000   0.0000   0.0000   0.0000   0.0000

          k = 0.3333 0.3333 0.3333 ( 24303 PWs)   bands (ev):

    -7.9311  -7.2190  -6.9737  -6.9737  -6.2963  -6.2154  -6.2154  -5.4504
    -4.1999  -4.0255  -4.0255  -3.5276  -3.3818  -3.3818  -3.3247  -3.3247
    -3.2872  -2.8998  -2.6671  -2.6671  -1.9440  -1.9047  -1.9047  -1.5346
    -1.4482  -1.4482  -1.3998  -1.3998  -1.3204  -1.2181  -1.2181   0.0737
     0.8438   0.8438   0.9778   0.9949   0.9949   1.3053   1.8427   1.8427
     1.8761   1.9072   2.0073   2.0073   2.5991   2.5991   2.6004   2.7092
     2.7375   2.7375   3.1466   3.1466   3.5401   4.0827   4.2935   4.2935
     4.8082   4.9255   4.9255   4.9683   5.0922   5.0922   5.1532   5.3084
     5.3084   5.3949   5.5131   5.5131   5.5768   5.5768   5.6249   6.3868
     6.7247   6.7247   6.9692   7.0069   7.0069   7.0073   7.0986   7.0986
     7.1995   7.1995   7.2506   7.2553   7.2677   7.2677   7.3702   7.3702
     7.3853   7.4991   7.7290   7.7290   7.9230   7.9230   7.9557   8.0077
     8.1890   8.1890   8.2927   8.3025   8.3025   8.4455   8.4495   8.4495
     8.6864   8.6864   8.8568   9.0809   9.1091   9.5427   9.5427   9.7898
     9.7898  10.4897  10.4897  10.5201  10.5801  10.9574  10.9574  11.2626
    11.2626  11.3115  11.4772  11.6687  11.6687  13.3319  15.2257  15.2257
    18.1615  18.2430  18.2430  18.4726  18.6400  18.6400  19.2564  19.3982
    19.3982  19.5474  19.5474  19.5738  19.6328  19.6328  19.6873  19.7416
    19.7416  19.8619  19.9208  19.9208  20.0074  20.0076  20.0274  20.1715

     occupation numbers 
     1.0000   1.0000   1.0000   1.0000   1.0000   1.0000   1.0000   1.0000
     1.0000   1.0000   1.0000   1.0000   1.0000   1.0000   1.0000   1.0000
     1.0000   1.0000   1.0000   1.0000   1.0000   1.0000   1.0000   1.0000
     1.0000   1.0000   1.0000   1.0000   1.0000   1.0000   1.0000   1.0000
     1.0000   1.0000   1.0000   1.0000   1.0000   1.0000   1.0000   1.0000
     1.0000   1.0000   1.0000   1.0000   1.0000   1.0000   1.0000   1.0000
     1.0000   1.0000   1.0000   1.0000   1.0000   1.0000   1.0000   1.0000
     1.0000   1.0000   1.0000   1.0000   1.0000   1.0000   1.0000   1.0000
     1.0000   1.0000   1.0000   1.0000   1.0000   1.0000   1.0000   1.0000
     1.0000   1.0000   1.0000   1.0000   1.0000   1.0000   1.0000   1.0000
     1.0000   1.0000   1.0000   1.0000   1.0000   1.0000   1.0000   1.0000
     1.0000   1.0000   1.0000   1.0000   1.0000   1.0000   1.0000   1.0000
     1.0000   1.0000   1.0000   1.0000   1.0000   1.0000   1.0000   1.0000
     1.0000   1.0000   1.0000   1.0000   1.0000   1.0000   1.0000   1.0000
     1.0000   1.0000   1.0000   1.0000   1.0000   1.0000   1.0000   1.0000
     1.0000   1.0000   1.0000   1.0000   1.0000   1.0000   0.0000   0.0000
     0.0000   0.0000   0.0000   0.0000   0.0000   0.0000   0.0000   0.0000
     0.0000   0.0000   0.0000   0.0000   0.0000   0.0000   0.0000   0.0000
     0.0000   0.0000   0.0000   0.0000   0.0000   0.0000   0.0000   0.0000

          k =-0.3333 0.0000 0.3333 ( 24236 PWs)   bands (ev):

    -8.1087  -7.5054  -7.0983  -6.5578  -5.9991  -5.6682  -5.3648  -5.0287
    -4.9260  -4.7584  -4.5119  -4.2946  -4.2245  -4.0387  -3.5832  -3.3290
    -2.7631  -2.4026  -2.3600  -2.2866  -2.1921  -2.1664  -2.0927  -1.6552
    -1.6347  -1.3083  -1.1107  -0.9863  -0.5842   0.0106   0.0773   0.1181
     0.2754   0.4979   0.8853   1.0558   1.2083   1.2253   1.2551   1.3979
     1.4860   1.5815   1.8683   1.9068   2.1382   2.5932   2.6823   2.8682
     2.9515   3.5046   3.6552   3.7142   3.7892   3.8942   4.0268   4.1167
     4.1777   4.3993   4.6212   4.8123   4.9697   5.0202   5.1858   5.2526
     5.4251   5.5693   5.6482   5.6930   5.7988   6.0362   6.0843   6.1366
     6.1810   6.2231   6.2742   6.4347   6.4775   6.6209   6.6436   6.8172
     6.8924   6.9686   7.0168   7.0987   7.2363   7.3897   7.5084   7.6802
     7.8513   7.8939   7.9695   8.0861   8.1798   8.2145   8.2622   8.2884
     8.3783   8.4377   8.5550   8.5944   8.7388   8.7549   8.8967   8.9575
     9.0804   9.1402   9.2338   9.3245   9.4525   9.4988   9.5224   9.6629
     9.7364   9.7545   9.9445  10.0302  10.0750  10.0952  10.5114  10.8830
    10.9814  11.1547  11.5097  11.7640  12.2336  13.6731  14.8423  15.1239
    18.0649  18.2010  18.2657  18.3150  18.3663  18.8047  18.9226  19.0954
    19.1533  19.2809  19.3532  19.4904  19.6964  19.8402  19.8960  20.0314
    20.2519  20.3673  20.4306  20.5247  20.5587  20.5997  20.6404  20.6801

     occupation numbers 
     1.0000   1.0000   1.0000   1.0000   1.0000   1.0000   1.0000   1.0000
     1.0000   1.0000   1.0000   1.0000   1.0000   1.0000   1.0000   1.0000
     1.0000   1.0000   1.0000   1.0000   1.0000   1.0000   1.0000   1.0000
     1.0000   1.0000   1.0000   1.0000   1.0000   1.0000   1.0000   1.0000
     1.0000   1.0000   1.0000   1.0000   1.0000   1.0000   1.0000   1.0000
     1.0000   1.0000   1.0000   1.0000   1.0000   1.0000   1.0000   1.0000
     1.0000   1.0000   1.0000   1.0000   1.0000   1.0000   1.0000   1.0000
     1.0000   1.0000   1.0000   1.0000   1.0000   1.0000   1.0000   1.0000
     1.0000   1.0000   1.0000   1.0000   1.0000   1.0000   1.0000   1.0000
     1.0000   1.0000   1.0000   1.0000   1.0000   1.0000   1.0000   1.0000
     1.0000   1.0000   1.0000   1.0000   1.0000   1.0000   1.0000   1.0000
     1.0000   1.0000   1.0000   1.0000   1.0000   1.0000   1.0000   1.0000
     1.0000   1.0000   1.0000   1.0000   1.0000   1.0000   1.0000   1.0000
     1.0000   1.0000   1.0000   1.0000   1.0000   1.0000   1.0000   1.0000
     1.0000   1.0000   1.0000   1.0000   1.0000   1.0000   1.0000   1.0000
     1.0000   1.0000   1.0000   1.0000   1.0000   1.0000   1.0000   0.5000
     0.0000   0.0000   0.0000   0.0000   0.0000   0.0000   0.0000   0.0000
     0.0000   0.0000   0.0000   0.0000   0.0000   0.0000   0.0000   0.0000
     0.0000   0.0000   0.0000   0.0000   0.0000   0.0000   0.0000   0.0000

          k = 0.3333-0.3333 0.3333 ( 24303 PWs)   bands (ev):

    -7.9048  -7.3580  -6.9741  -6.8226  -6.4650  -6.2143  -5.9805  -5.4893
    -4.4871  -4.0276  -3.9334  -3.7049  -3.4060  -3.3587  -3.3120  -3.2132
    -3.0729  -2.8842  -2.6868  -2.4232  -2.0604  -1.8834  -1.8502  -1.7149
    -1.4863  -1.4590  -1.4191  -1.3545  -1.3534  -1.2607  -1.1702  -0.0510
     0.7562   0.8827   0.9651   0.9984   1.0639   1.4210   1.7430   1.7831
     1.8608   1.9443   2.0468   2.2448   2.5790   2.6163   2.6879   2.7061
     2.7259   2.7824   2.9227   3.1799   3.5119   3.9946   4.2377   4.3158
     4.8239   4.8261   4.8598   5.0133   5.0261   5.0728   5.1995   5.2591
     5.2859   5.4411   5.4459   5.5037   5.6854   5.7760   5.8322   6.4607
     6.6986   6.7585   6.9242   6.9316   6.9719   7.0526   7.0740   7.0984
     7.1677   7.1934   7.2375   7.2670   7.2730   7.3201   7.3343   7.3559
     7.3825   7.4624   7.7377   7.7470   7.8281   7.9309   7.9547   7.9651
     8.1330   8.1593   8.2742   8.2891   8.3796   8.3910   8.4133   8.4946
     8.7034   8.7353   8.9714   8.9853   9.1219   9.5330   9.5965   9.6969
     9.8893  10.4063  10.5166  10.5260  10.5559  10.9350  10.9465  11.2065
    11.2275  11.2998  11.4503  11.7212  11.7420  13.6988  14.9099  15.2132
    18.1273  18.2583  18.3413  18.5450  18.6586  18.7258  19.2128  19.3971
    19.4322  19.5105  19.5348  19.5541  19.6089  19.6295  19.6625  19.7319
    19.7422  19.7943  19.9185  19.9231  19.9943  20.0000  20.0436  20.1551

     occupation numbers 
     1.0000   1.0000   1.0000   1.0000   1.0000   1.0000   1.0000   1.0000
     1.0000   1.0000   1.0000   1.0000   1.0000   1.0000   1.0000   1.0000
     1.0000   1.0000   1.0000   1.0000   1.0000   1.0000   1.0000   1.0000
     1.0000   1.0000   1.0000   1.0000   1.0000   1.0000   1.0000   1.0000
     1.0000   1.0000   1.0000   1.0000   1.0000   1.0000   1.0000   1.0000
     1.0000   1.0000   1.0000   1.0000   1.0000   1.0000   1.0000   1.0000
     1.0000   1.0000   1.0000   1.0000   1.0000   1.0000   1.0000   1.0000
     1.0000   1.0000   1.0000   1.0000   1.0000   1.0000   1.0000   1.0000
     1.0000   1.0000   1.0000   1.0000   1.0000   1.0000   1.0000   1.0000
     1.0000   1.0000   1.0000   1.0000   1.0000   1.0000   1.0000   1.0000
     1.0000   1.0000   1.0000   1.0000   1.0000   1.0000   1.0000   1.0000
     1.0000   1.0000   1.0000   1.0000   1.0000   1.0000   1.0000   1.0000
     1.0000   1.0000   1.0000   1.0000   1.0000   1.0000   1.0000   1.0000
     1.0000   1.0000   1.0000   1.0000   1.0000   1.0000   1.0000   1.0000
     1.0000   1.0000   1.0000   1.0000   1.0000   1.0000   1.0000   1.0000
     1.0000   1.0000   1.0000   1.0000   1.0000   1.0000   1.0000   0.0000
     0.0000   0.0000   0.0000   0.0000   0.0000   0.0000   0.0000   0.0000
     0.0000   0.0000   0.0000   0.0000   0.0000   0.0000   0.0000   0.0000
     0.0000   0.0000   0.0000   0.0000   0.0000   0.0000   0.0000   0.0000

     the spin up/dw Fermi energies are    15.1259   15.1258 ev

!    total energy              =    -724.78011142 Ry
     Harris-Foulkes estimate   =    -724.78011102 Ry
     estimated scf accuracy    <       0.00000047 Ry

     The total energy is the sum of the following terms:

     one-electron contribution =     232.99903433 Ry
     hartree contribution      =      69.07696062 Ry
     xc contribution           =    -226.33635926 Ry
     ewald contribution        =    -800.51967418 Ry
     smearing contrib. (-TS)   =      -0.00007293 Ry

     total magnetization       =    -0.00 Bohr mag/cell
     absolute magnetization    =     0.00 Bohr mag/cell

     convergence has been achieved in   9 iterations

     Writing output data file di.save
 
     init_run     :      1.30s CPU      1.67s WALL (       1 calls)
     electrons    :     26.90s CPU     27.28s WALL (       1 calls)

     Called by init_run:
     wfcinit      :      0.77s CPU      0.84s WALL (       1 calls)
     wfcinit:atom :      0.01s CPU      0.01s WALL (       2 calls)
     wfcinit:wfcr :      0.72s CPU      0.78s WALL (       2 calls)
     potinit      :      0.07s CPU      0.08s WALL (       1 calls)

     Called by electrons:
     c_bands      :     25.30s CPU     25.64s WALL (       9 calls)
     sum_band     :      1.08s CPU      1.10s WALL (       9 calls)
     v_of_rho     :      0.38s CPU      0.39s WALL (      10 calls)
     v_h          :      0.01s CPU      0.01s WALL (      10 calls)
     v_xc         :      0.37s CPU      0.38s WALL (      10 calls)
     mix_rho      :      0.06s CPU      0.06s WALL (       9 calls)

     Called by c_bands:
     init_us_2    :      0.17s CPU      0.17s WALL (      38 calls)
     cegterg      :     21.99s CPU     22.31s WALL (      18 calls)

     Called by sum_band:

     Called by *egterg:
     h_psi        :      8.44s CPU      8.55s WALL (     136 calls)
     g_psi        :      0.05s CPU      0.05s WALL (     116 calls)
     cdiaghg      :      9.84s CPU      9.88s WALL (     134 calls)
     cegterg:over :      1.65s CPU      1.66s WALL (     116 calls)
     cegterg:upda :      1.25s CPU      1.26s WALL (     116 calls)
     cegterg:last :      0.46s CPU      0.46s WALL (      18 calls)

     Called by h_psi:
     h_psi:pot    :      8.34s CPU      8.45s WALL (     136 calls)
     h_psi:calbec :      1.81s CPU      1.83s WALL (     136 calls)
     vloc_psi     :      4.64s CPU      4.72s WALL (     136 calls)
     add_vuspsi   :      1.88s CPU      1.90s WALL (     136 calls)

     General routines
     calbec       :      1.81s CPU      1.83s WALL (     136 calls)
     fft          :      0.12s CPU      0.34s WALL (     207 calls)
     fftw         :      4.96s CPU      4.94s WALL (   18352 calls)
 
     Parallel routines
     fft_scatter  :      1.51s CPU      1.49s WALL (   18559 calls)
 
     PWSCF        :    31.06s CPU        34.53s WALL

 
   This run was terminated on:  10:24:38  12May2020            

=------------------------------------------------------------------------------=
   JOB DONE.
=------------------------------------------------------------------------------=
