
     Program PWSCF v.6.1 (svn rev. 13369) starts on 12May2020 at 10:32:21 

     This program is part of the open-source Quantum ESPRESSO suite
     for quantum simulation of materials; please cite
         "P. Giannozzi et al., J. Phys.:Condens. Matter 21 395502 (2009);
          URL http://www.quantum-espresso.org", 
     in publications or presentations arising from this work. More details at
     http://www.quantum-espresso.org/quote

     Parallel version (MPI), running on    96 processors
     K-points division:     npool     =       6
     R & G space division:  proc/nbgrp/npool/nimage =      16
     Reading input from scf.in
Warning: card &IONS ignored
Warning: card / ignored

     Current dimensions of program PWSCF are:
     Max number of different atomic species (ntypx) = 10
     Max number of k-points (npk) =  40000
     Max angular momentum in pseudopotentials (lmaxx) =  3

     Subspace diagonalization in iterative solution of the eigenvalue problem:
     a serial algorithm will be used

 
     Parallelization info
     --------------------
     sticks:   dense  smooth     PW     G-vecs:    dense   smooth      PW
     Min         252     252     67                12125    12125    1669
     Max         254     254     68                12129    12129    1672
     Sum        4049    4049   1085               194039   194039   26745
 


     bravais-lattice index     =            1
     lattice parameter (alat)  =      13.4862  a.u.
     unit-cell volume          =    2452.8358 (a.u.)^3
     number of atoms/cell      =           63
     number of atomic types    =            2
     number of electrons       =       254.00
     number of Kohn-Sham states=          152
     kinetic-energy cutoff     =      70.0000  Ry
     charge density cutoff     =     280.0000  Ry
     convergence threshold     =      1.0E-06
     mixing beta               =       0.5000
     number of iterations used =            8  plain     mixing
     Exchange-correlation      = PBE ( 1  4  3  4 0 0)

     celldm(1)=  13.486197  celldm(2)=   0.000000  celldm(3)=   0.000000
     celldm(4)=   0.000000  celldm(5)=   0.000000  celldm(6)=   0.000000

     crystal axes: (cart. coord. in units of alat)
               a(1) = (   1.000000   0.000000   0.000000 )  
               a(2) = (   0.000000   1.000000   0.000000 )  
               a(3) = (   0.000000   0.000000   1.000000 )  

     reciprocal axes: (cart. coord. in units 2 pi/alat)
               b(1) = (  1.000000  0.000000  0.000000 )  
               b(2) = (  0.000000  1.000000  0.000000 )  
               b(3) = (  0.000000  0.000000  1.000000 )  


     PseudoPot. # 1 for C  read from file:
     /home/tjsmart/Pseudo/C_ONCV_PBE-1.0.upf
     MD5 check sum: 72b63e32b2fd29504de26a4901699f60
     Pseudo is Norm-conserving, Zval =  4.0
     Generated using ONCVPSP code by D. R. Hamann
     Using radial grid of 1248 points,  4 beta functions with: 
                l(1) =   0
                l(2) =   0
                l(3) =   1
                l(4) =   1

     PseudoPot. # 2 for N  read from file:
     /home/tjsmart/Pseudo/N_ONCV_PBE-1.0.upf
     MD5 check sum: 09890da6b2972017450f7114a6086fad
     Pseudo is Norm-conserving, Zval =  5.0
     Generated using ONCVPSP code by D. R. Hamann
     Using radial grid of 1058 points,  4 beta functions with: 
                l(1) =   0
                l(2) =   0
                l(3) =   1
                l(4) =   1

     atomic species   valence    mass     pseudopotential
        C              4.00    12.01110     C ( 1.00)
        N              5.00    14.00670     N ( 1.00)

     Starting magnetic structure 
     atomic species   magnetization
        C            0.500
        N            0.500

      6 Sym. Ops. (no inversion) found


                                    s                        frac. trans.

      isym =  1     identity                                     

 cryst.   s( 1) = (     1          0          0      )
                  (     0          1          0      )
                  (     0          0          1      )

 cart.    s( 1) = (  1.0000000  0.0000000  0.0000000 )
                  (  0.0000000  1.0000000  0.0000000 )
                  (  0.0000000  0.0000000  1.0000000 )


      isym =  2     120 deg rotation - cart. axis [-1,-1,-1]     

 cryst.   s( 2) = (     0          0          1      )
                  (     1          0          0      )
                  (     0          1          0      )

 cart.    s( 2) = (  0.0000000  1.0000000  0.0000000 )
                  (  0.0000000  0.0000000  1.0000000 )
                  (  1.0000000  0.0000000  0.0000000 )


      isym =  3     120 deg rotation - cart. axis [1,1,1]        

 cryst.   s( 3) = (     0          1          0      )
                  (     0          0          1      )
                  (     1          0          0      )

 cart.    s( 3) = (  0.0000000  0.0000000  1.0000000 )
                  (  1.0000000  0.0000000  0.0000000 )
                  (  0.0000000  1.0000000  0.0000000 )


      isym =  4     inv. 180 deg rotation - cart. axis [1,-1,0]  

 cryst.   s( 4) = (     0          1          0      )
                  (     1          0          0      )
                  (     0          0          1      )

 cart.    s( 4) = (  0.0000000  1.0000000  0.0000000 )
                  (  1.0000000  0.0000000  0.0000000 )
                  (  0.0000000  0.0000000  1.0000000 )


      isym =  5     inv. 180 deg rotation - cart. axis [-1,0,1]  

 cryst.   s( 5) = (     0          0          1      )
                  (     0          1          0      )
                  (     1          0          0      )

 cart.    s( 5) = (  0.0000000  0.0000000  1.0000000 )
                  (  0.0000000  1.0000000  0.0000000 )
                  (  1.0000000  0.0000000  0.0000000 )


      isym =  6     inv. 180 deg rotation - cart. axis [0,1,-1]  

 cryst.   s( 6) = (     1          0          0      )
                  (     0          0          1      )
                  (     0          1          0      )

 cart.    s( 6) = (  1.0000000  0.0000000  0.0000000 )
                  (  0.0000000  0.0000000  1.0000000 )
                  (  0.0000000  1.0000000  0.0000000 )


     point group C_3v (3m)  
     there are  3 classes
     the character table:

       E     2C3   3s_v 
A_1    1.00  1.00  1.00
A_2    1.00  1.00 -1.00
E      2.00 -1.00  0.00

     the symmetry operations in each class and the name of the first element:

     E        1
          identity                                               
     2C3      2    3
          120 deg rotation - cart. axis [-1,-1,-1]               
     3s_v     4    5    6
          inv. 180 deg rotation - cart. axis [1,-1,0]            

   Cartesian axes

     site n.     atom                  positions (alat units)
         1           C   tau(   1) = (   0.3757857   0.3757857   0.8735578  )
         2           C   tau(   2) = (   0.5002946   0.0004709   0.0004709  )
         3           C   tau(   3) = (   0.4999700  -0.0004888   0.4999700  )
         4           C   tau(   4) = (   0.0004709   0.5002946   0.0004709  )
         5           C   tau(   5) = (  -0.0004888   0.4999700   0.4999700  )
         6           C   tau(   6) = (  -0.0001238  -0.0001238  -0.0001238  )
         7           C   tau(   7) = (   0.0004709   0.0004709   0.5002946  )
         8           C   tau(   8) = (   0.2504900   0.2504900  -0.0008524  )
         9           C   tau(   9) = (   0.2515105   0.2515105   0.4965963  )
        10           C   tau(  10) = (   0.2501132   0.7491508   0.0008217  )
        11           C   tau(  11) = (   0.2508849   0.7487476   0.5021807  )
        12           C   tau(  12) = (   0.7491508   0.2501132   0.0008217  )
        13           C   tau(  13) = (   0.7487476   0.2508849   0.5021807  )
        14           C   tau(  14) = (   0.7494881   0.7494881  -0.0009427  )
        15           C   tau(  15) = (   0.4999700   0.4999700  -0.0004888  )
        16           C   tau(  16) = (   0.7484720   0.7484720   0.4982479  )
        17           C   tau(  17) = (   0.5021807   0.2508849   0.7487476  )
        18           C   tau(  18) = (   0.5021807   0.7487476   0.2508849  )
        19           C   tau(  19) = (   0.4982479   0.7484720   0.7484720  )
        20           C   tau(  20) = (  -0.0008524   0.2504900   0.2504900  )
        21           C   tau(  21) = (   0.0008217   0.2501132   0.7491508  )
        22           C   tau(  22) = (   0.0008217   0.7491508   0.2501132  )
        23           C   tau(  23) = (  -0.0009427   0.7494881   0.7494881  )
        24           C   tau(  24) = (   0.2515105   0.4965963   0.2515105  )
        25           C   tau(  25) = (   0.2508849   0.5021807   0.7487476  )
        26           C   tau(  26) = (   0.2504900  -0.0008524   0.2504900  )
        27           C   tau(  27) = (   0.2501132   0.0008217   0.7491508  )
        28           C   tau(  28) = (   0.7487476   0.5021807   0.2508849  )
        29           C   tau(  29) = (   0.7484720   0.4982479   0.7484720  )
        30           C   tau(  30) = (   0.4965963   0.2515105   0.2515105  )
        31           C   tau(  31) = (   0.7491508   0.0008217   0.2501132  )
        32           C   tau(  32) = (   0.6241707   0.8735355   0.6241707  )
        33           C   tau(  33) = (   0.6364625   0.3616775   0.6364625  )
        34           C   tau(  34) = (   0.3756555   0.8762245   0.8762245  )
        35           C   tau(  35) = (   0.3757857   0.8735578   0.3757857  )
        36           C   tau(  36) = (   0.8762245   0.3756555   0.8762245  )
        37           C   tau(  37) = (   0.8735578   0.3757857   0.3757857  )
        38           C   tau(  38) = (   0.8744535   0.8744535   0.8744535  )
        39           C   tau(  39) = (   0.8762245   0.8762245   0.3756555  )
        40           C   tau(  40) = (   0.1253681   0.1253681   0.8744533  )
        41           C   tau(  41) = (   0.1246732   0.1246732   0.3748742  )
        42           C   tau(  42) = (   0.1234813   0.6242908   0.8761947  )
        43           C   tau(  43) = (   0.1265014   0.6235517   0.3763968  )
        44           C   tau(  44) = (   0.6242908   0.1234813   0.8761947  )
        45           C   tau(  45) = (   0.6235517   0.1265014   0.3763968  )
        46           C   tau(  46) = (   0.6242908   0.8761947   0.1234813  )
        47           C   tau(  47) = (   0.6241707   0.6241707   0.8735355  )
        48           C   tau(  48) = (   0.3748742   0.1246732   0.1246732  )
        49           C   tau(  49) = (   0.3763968   0.1265014   0.6235517  )
        50           C   tau(  50) = (   0.3763968   0.6235517   0.1265014  )
        51           C   tau(  51) = (   0.3616775   0.6364625   0.6364625  )
        52           C   tau(  52) = (   0.8744533   0.1253681   0.1253681  )
        53           C   tau(  53) = (   0.8761947   0.1234813   0.6242908  )
        54           C   tau(  54) = (   0.8761947   0.6242908   0.1234813  )
        55           C   tau(  55) = (   0.8735355   0.6241707   0.6241707  )
        56           C   tau(  56) = (   0.1246732   0.3748742   0.1246732  )
        57           C   tau(  57) = (   0.1265014   0.3763968   0.6235517  )
        58           C   tau(  58) = (   0.1253681   0.8744533   0.1253681  )
        59           C   tau(  59) = (   0.1234813   0.8761947   0.6242908  )
        60           C   tau(  60) = (   0.6235517   0.3763968   0.1265014  )
        61           C   tau(  61) = (   0.6364625   0.6364625   0.3616775  )
        62           C   tau(  62) = (   0.7494881  -0.0009427   0.7494881  )
        63           N   tau(  63) = (   0.3682581   0.3682581   0.3682581  )

   Crystallographic axes

     site n.     atom                  positions (cryst. coord.)
         1           C   tau(   1) = (  0.3757857  0.3757857  0.8735578  )
         2           C   tau(   2) = (  0.5002946  0.0004709  0.0004709  )
         3           C   tau(   3) = (  0.4999700 -0.0004888  0.4999700  )
         4           C   tau(   4) = (  0.0004709  0.5002946  0.0004709  )
         5           C   tau(   5) = ( -0.0004888  0.4999700  0.4999700  )
         6           C   tau(   6) = ( -0.0001238 -0.0001238 -0.0001238  )
         7           C   tau(   7) = (  0.0004709  0.0004709  0.5002946  )
         8           C   tau(   8) = (  0.2504900  0.2504900 -0.0008524  )
         9           C   tau(   9) = (  0.2515105  0.2515105  0.4965963  )
        10           C   tau(  10) = (  0.2501132  0.7491508  0.0008217  )
        11           C   tau(  11) = (  0.2508849  0.7487476  0.5021807  )
        12           C   tau(  12) = (  0.7491508  0.2501132  0.0008217  )
        13           C   tau(  13) = (  0.7487476  0.2508849  0.5021807  )
        14           C   tau(  14) = (  0.7494881  0.7494881 -0.0009427  )
        15           C   tau(  15) = (  0.4999700  0.4999700 -0.0004888  )
        16           C   tau(  16) = (  0.7484720  0.7484720  0.4982479  )
        17           C   tau(  17) = (  0.5021807  0.2508849  0.7487476  )
        18           C   tau(  18) = (  0.5021807  0.7487476  0.2508849  )
        19           C   tau(  19) = (  0.4982479  0.7484720  0.7484720  )
        20           C   tau(  20) = ( -0.0008524  0.2504900  0.2504900  )
        21           C   tau(  21) = (  0.0008217  0.2501132  0.7491508  )
        22           C   tau(  22) = (  0.0008217  0.7491508  0.2501132  )
        23           C   tau(  23) = ( -0.0009427  0.7494881  0.7494881  )
        24           C   tau(  24) = (  0.2515105  0.4965963  0.2515105  )
        25           C   tau(  25) = (  0.2508849  0.5021807  0.7487476  )
        26           C   tau(  26) = (  0.2504900 -0.0008524  0.2504900  )
        27           C   tau(  27) = (  0.2501132  0.0008217  0.7491508  )
        28           C   tau(  28) = (  0.7487476  0.5021807  0.2508849  )
        29           C   tau(  29) = (  0.7484720  0.4982479  0.7484720  )
        30           C   tau(  30) = (  0.4965963  0.2515105  0.2515105  )
        31           C   tau(  31) = (  0.7491508  0.0008217  0.2501132  )
        32           C   tau(  32) = (  0.6241707  0.8735355  0.6241707  )
        33           C   tau(  33) = (  0.6364625  0.3616775  0.6364625  )
        34           C   tau(  34) = (  0.3756555  0.8762245  0.8762245  )
        35           C   tau(  35) = (  0.3757857  0.8735578  0.3757857  )
        36           C   tau(  36) = (  0.8762245  0.3756555  0.8762245  )
        37           C   tau(  37) = (  0.8735578  0.3757857  0.3757857  )
        38           C   tau(  38) = (  0.8744535  0.8744535  0.8744535  )
        39           C   tau(  39) = (  0.8762245  0.8762245  0.3756555  )
        40           C   tau(  40) = (  0.1253681  0.1253681  0.8744533  )
        41           C   tau(  41) = (  0.1246732  0.1246732  0.3748742  )
        42           C   tau(  42) = (  0.1234813  0.6242908  0.8761947  )
        43           C   tau(  43) = (  0.1265014  0.6235517  0.3763968  )
        44           C   tau(  44) = (  0.6242908  0.1234813  0.8761947  )
        45           C   tau(  45) = (  0.6235517  0.1265014  0.3763968  )
        46           C   tau(  46) = (  0.6242908  0.8761947  0.1234813  )
        47           C   tau(  47) = (  0.6241707  0.6241707  0.8735355  )
        48           C   tau(  48) = (  0.3748742  0.1246732  0.1246732  )
        49           C   tau(  49) = (  0.3763968  0.1265014  0.6235517  )
        50           C   tau(  50) = (  0.3763968  0.6235517  0.1265014  )
        51           C   tau(  51) = (  0.3616775  0.6364625  0.6364625  )
        52           C   tau(  52) = (  0.8744533  0.1253681  0.1253681  )
        53           C   tau(  53) = (  0.8761947  0.1234813  0.6242908  )
        54           C   tau(  54) = (  0.8761947  0.6242908  0.1234813  )
        55           C   tau(  55) = (  0.8735355  0.6241707  0.6241707  )
        56           C   tau(  56) = (  0.1246732  0.3748742  0.1246732  )
        57           C   tau(  57) = (  0.1265014  0.3763968  0.6235517  )
        58           C   tau(  58) = (  0.1253681  0.8744533  0.1253681  )
        59           C   tau(  59) = (  0.1234813  0.8761947  0.6242908  )
        60           C   tau(  60) = (  0.6235517  0.3763968  0.1265014  )
        61           C   tau(  61) = (  0.6364625  0.6364625  0.3616775  )
        62           C   tau(  62) = (  0.7494881 -0.0009427  0.7494881  )
        63           N   tau(  63) = (  0.3682581  0.3682581  0.3682581  )

     number of k points=     6
                       cart. coord. in units 2pi/alat
        k(    1) = (   0.0000000   0.0000000   0.0000000), wk =   0.0370370
        k(    2) = (   0.0000000   0.0000000   0.3333333), wk =   0.2222222
        k(    3) = (   0.0000000   0.3333333   0.3333333), wk =   0.2222222
        k(    4) = (   0.3333333   0.3333333   0.3333333), wk =   0.0740741
        k(    5) = (  -0.3333333   0.0000000   0.3333333), wk =   0.2222222
        k(    6) = (   0.3333333  -0.3333333   0.3333333), wk =   0.2222222

                       cryst. coord.
        k(    1) = (   0.0000000   0.0000000   0.0000000), wk =   0.0370370
        k(    2) = (   0.0000000   0.0000000   0.3333333), wk =   0.2222222
        k(    3) = (   0.0000000   0.3333333   0.3333333), wk =   0.2222222
        k(    4) = (   0.3333333   0.3333333   0.3333333), wk =   0.0740741
        k(    5) = (  -0.3333333   0.0000000   0.3333333), wk =   0.2222222
        k(    6) = (   0.3333333  -0.3333333   0.3333333), wk =   0.2222222

     Dense  grid:   194039 G-vectors     FFT dimensions: (  72,  72,  72)

     Occupations read from input 

      Spin-up

        1.0000   1.0000   1.0000   1.0000   1.0000   1.0000   1.0000   1.0000
        1.0000   1.0000   1.0000   1.0000   1.0000   1.0000   1.0000   1.0000
        1.0000   1.0000   1.0000   1.0000   1.0000   1.0000   1.0000   1.0000
        1.0000   1.0000   1.0000   1.0000   1.0000   1.0000   1.0000   1.0000
        1.0000   1.0000   1.0000   1.0000   1.0000   1.0000   1.0000   1.0000
        1.0000   1.0000   1.0000   1.0000   1.0000   1.0000   1.0000   1.0000
        1.0000   1.0000   1.0000   1.0000   1.0000   1.0000   1.0000   1.0000
        1.0000   1.0000   1.0000   1.0000   1.0000   1.0000   1.0000   1.0000
        1.0000   1.0000   1.0000   1.0000   1.0000   1.0000   1.0000   1.0000
        1.0000   1.0000   1.0000   1.0000   1.0000   1.0000   1.0000   1.0000
        1.0000   1.0000   1.0000   1.0000   1.0000   1.0000   1.0000   1.0000
        1.0000   1.0000   1.0000   1.0000   1.0000   1.0000   1.0000   1.0000
        1.0000   1.0000   1.0000   1.0000   1.0000   1.0000   1.0000   1.0000
        1.0000   1.0000   1.0000   1.0000   1.0000   1.0000   1.0000   1.0000
        1.0000   1.0000   1.0000   1.0000   1.0000   1.0000   1.0000   1.0000
        1.0000   1.0000   1.0000   1.0000   1.0000   1.0000   1.0000   1.0000
        0.0000   0.0000   0.0000   0.0000   0.0000   0.0000   0.0000   0.0000
        0.0000   0.0000   0.0000   0.0000   0.0000   0.0000   0.0000   0.0000
        0.0000   0.0000   0.0000   0.0000   0.0000   0.0000   0.0000   0.0000

      Spin-down

        1.0000   1.0000   1.0000   1.0000   1.0000   1.0000   1.0000   1.0000
        1.0000   1.0000   1.0000   1.0000   1.0000   1.0000   1.0000   1.0000
        1.0000   1.0000   1.0000   1.0000   1.0000   1.0000   1.0000   1.0000
        1.0000   1.0000   1.0000   1.0000   1.0000   1.0000   1.0000   1.0000
        1.0000   1.0000   1.0000   1.0000   1.0000   1.0000   1.0000   1.0000
        1.0000   1.0000   1.0000   1.0000   1.0000   1.0000   1.0000   1.0000
        1.0000   1.0000   1.0000   1.0000   1.0000   1.0000   1.0000   1.0000
        1.0000   1.0000   1.0000   1.0000   1.0000   1.0000   1.0000   1.0000
        1.0000   1.0000   1.0000   1.0000   1.0000   1.0000   1.0000   1.0000
        1.0000   1.0000   1.0000   1.0000   1.0000   1.0000   1.0000   1.0000
        1.0000   1.0000   1.0000   1.0000   1.0000   1.0000   1.0000   1.0000
        1.0000   1.0000   1.0000   1.0000   1.0000   1.0000   1.0000   1.0000
        1.0000   1.0000   1.0000   1.0000   1.0000   1.0000   1.0000   1.0000
        1.0000   1.0000   1.0000   1.0000   1.0000   1.0000   1.0000   1.0000
        1.0000   1.0000   1.0000   1.0000   1.0000   1.0000   1.0000   1.0000
        1.0000   1.0000   1.0000   1.0000   1.0000   0.0000   1.0000   0.0000
        0.0000   0.0000   0.0000   0.0000   0.0000   0.0000   0.0000   0.0000
        0.0000   0.0000   0.0000   0.0000   0.0000   0.0000   0.0000   0.0000
        0.0000   0.0000   0.0000   0.0000   0.0000   0.0000   0.0000   0.0000

     Estimated max dynamical RAM per process >      60.23MB

     Estimated total allocated dynamical RAM >    5782.56MB
     Generating pointlists ...
     new r_m :   0.0855 (alat units)  1.1524 (a.u.) for type    1
     new r_m :   0.0863 (alat units)  1.1633 (a.u.) for type    2

     Initial potential from superposition of free atoms

     starting charge  252.99722, renormalised to  254.00000
     Starting wfc are  252 randomized atomic wfcs

     total cpu time spent up to now is        3.7 secs

     per-process dynamical memory:    59.5 Mb

     Self-consistent Calculation

     iteration #  1     ecut=    70.00 Ry     beta=0.50
     Davidson diagonalization with overlap
     ethr =  1.00E-02,  avg # of iterations =  3.0

     total cpu time spent up to now is        6.6 secs

     total energy              =    -722.46006563 Ry
     Harris-Foulkes estimate   =    -717.56148966 Ry
     estimated scf accuracy    <       6.66745232 Ry

     total magnetization       =     2.00 Bohr mag/cell
     absolute magnetization    =     3.66 Bohr mag/cell

     iteration #  2     ecut=    70.00 Ry     beta=0.50
     Davidson diagonalization with overlap
     ethr =  2.62E-03,  avg # of iterations =  2.0

     total cpu time spent up to now is        8.0 secs

     total energy              =    -724.30318887 Ry
     Harris-Foulkes estimate   =    -722.83162193 Ry
     estimated scf accuracy    <       1.43144918 Ry

     total magnetization       =     2.00 Bohr mag/cell
     absolute magnetization    =     2.50 Bohr mag/cell

     iteration #  3     ecut=    70.00 Ry     beta=0.50
     Davidson diagonalization with overlap
     ethr =  5.64E-04,  avg # of iterations =  7.4

     total cpu time spent up to now is       11.4 secs

     total energy              =    -724.55445170 Ry
     Harris-Foulkes estimate   =    -724.58008680 Ry
     estimated scf accuracy    <       0.60339067 Ry

     total magnetization       =     2.00 Bohr mag/cell
     absolute magnetization    =     2.14 Bohr mag/cell

     iteration #  4     ecut=    70.00 Ry     beta=0.50
     Davidson diagonalization with overlap
     ethr =  2.38E-04,  avg # of iterations =  6.2

     total cpu time spent up to now is       14.3 secs

     total energy              =    -724.68468539 Ry
     Harris-Foulkes estimate   =    -724.67356485 Ry
     estimated scf accuracy    <       0.02785851 Ry

     total magnetization       =     2.00 Bohr mag/cell
     absolute magnetization    =     2.14 Bohr mag/cell

     iteration #  5     ecut=    70.00 Ry     beta=0.50
     Davidson diagonalization with overlap
     ethr =  1.10E-05,  avg # of iterations =  9.8

     total cpu time spent up to now is       19.6 secs

     total energy              =    -724.69253643 Ry
     Harris-Foulkes estimate   =    -724.69196708 Ry
     estimated scf accuracy    <       0.00521884 Ry

     total magnetization       =     2.00 Bohr mag/cell
     absolute magnetization    =     2.16 Bohr mag/cell

     iteration #  6     ecut=    70.00 Ry     beta=0.50
     Davidson diagonalization with overlap
     ethr =  2.05E-06,  avg # of iterations =  8.3

     total cpu time spent up to now is       24.0 secs

     total energy              =    -724.69359159 Ry
     Harris-Foulkes estimate   =    -724.69364613 Ry
     estimated scf accuracy    <       0.00054782 Ry

     total magnetization       =     2.00 Bohr mag/cell
     absolute magnetization    =     2.17 Bohr mag/cell

     iteration #  7     ecut=    70.00 Ry     beta=0.50
     Davidson diagonalization with overlap
     ethr =  2.16E-07,  avg # of iterations =  3.5

     total cpu time spent up to now is       26.8 secs

     total energy              =    -724.69377368 Ry
     Harris-Foulkes estimate   =    -724.69375440 Ry
     estimated scf accuracy    <       0.00008981 Ry

     total magnetization       =     2.00 Bohr mag/cell
     absolute magnetization    =     2.18 Bohr mag/cell

     iteration #  8     ecut=    70.00 Ry     beta=0.50
     Davidson diagonalization with overlap
     ethr =  3.54E-08,  avg # of iterations =  3.0

     total cpu time spent up to now is       28.7 secs

     total energy              =    -724.69381642 Ry
     Harris-Foulkes estimate   =    -724.69379997 Ry
     estimated scf accuracy    <       0.00001633 Ry

     total magnetization       =     2.00 Bohr mag/cell
     absolute magnetization    =     2.19 Bohr mag/cell

     iteration #  9     ecut=    70.00 Ry     beta=0.50
     Davidson diagonalization with overlap
     ethr =  6.43E-09,  avg # of iterations =  3.8

     total cpu time spent up to now is       31.0 secs

     total energy              =    -724.69382912 Ry
     Harris-Foulkes estimate   =    -724.69382038 Ry
     estimated scf accuracy    <       0.00000475 Ry

     total magnetization       =     2.00 Bohr mag/cell
     absolute magnetization    =     2.20 Bohr mag/cell

     iteration # 10     ecut=    70.00 Ry     beta=0.50
     Davidson diagonalization with overlap
     ethr =  1.87E-09,  avg # of iterations =  4.5
 
     Magnetic moment per site:
     atom:    1    charge:    1.8222    magn:    0.0073    constr:    0.0000
     atom:    2    charge:    1.8433    magn:    0.0085    constr:    0.0000
     atom:    3    charge:    1.8307    magn:   -0.0014    constr:    0.0000
     atom:    4    charge:    1.8433    magn:    0.0085    constr:    0.0000
     atom:    5    charge:    1.8307    magn:   -0.0014    constr:    0.0000
     atom:    6    charge:    1.8201    magn:   -0.0000    constr:    0.0000
     atom:    7    charge:    1.8433    magn:    0.0085    constr:    0.0000
     atom:    8    charge:    1.8239    magn:   -0.0007    constr:    0.0000
     atom:    9    charge:    1.7981    magn:    0.0001    constr:    0.0000
     atom:   10    charge:    1.8190    magn:   -0.0014    constr:    0.0000
     atom:   11    charge:    1.8352    magn:   -0.0031    constr:    0.0000
     atom:   12    charge:    1.8190    magn:   -0.0014    constr:    0.0000
     atom:   13    charge:    1.8352    magn:   -0.0031    constr:    0.0000
     atom:   14    charge:    1.8226    magn:   -0.0016    constr:    0.0000
     atom:   15    charge:    1.8307    magn:   -0.0014    constr:    0.0000
     atom:   16    charge:    1.8291    magn:   -0.0004    constr:    0.0000
     atom:   17    charge:    1.8352    magn:   -0.0031    constr:    0.0000
     atom:   18    charge:    1.8352    magn:   -0.0031    constr:    0.0000
     atom:   19    charge:    1.8291    magn:   -0.0004    constr:    0.0000
     atom:   20    charge:    1.8239    magn:   -0.0007    constr:    0.0000
     atom:   21    charge:    1.8190    magn:   -0.0014    constr:    0.0000
     atom:   22    charge:    1.8190    magn:   -0.0014    constr:    0.0000
     atom:   23    charge:    1.8226    magn:   -0.0016    constr:    0.0000
     atom:   24    charge:    1.7981    magn:    0.0001    constr:    0.0000
     atom:   25    charge:    1.8352    magn:   -0.0031    constr:    0.0000
     atom:   26    charge:    1.8239    magn:   -0.0007    constr:    0.0000
     atom:   27    charge:    1.8190    magn:   -0.0014    constr:    0.0000
     atom:   28    charge:    1.8352    magn:   -0.0031    constr:    0.0000
     atom:   29    charge:    1.8291    magn:   -0.0004    constr:    0.0000
     atom:   30    charge:    1.7981    magn:    0.0001    constr:    0.0000
     atom:   31    charge:    1.8190    magn:   -0.0014    constr:    0.0000
     atom:   32    charge:    1.8240    magn:    0.0061    constr:    0.0000
     atom:   33    charge:    1.8585    magn:    0.2029    constr:    0.0000
     atom:   34    charge:    1.8206    magn:    0.0165    constr:    0.0000
     atom:   35    charge:    1.8222    magn:    0.0073    constr:    0.0000
     atom:   36    charge:    1.8206    magn:    0.0165    constr:    0.0000
     atom:   37    charge:    1.8222    magn:    0.0073    constr:    0.0000
     atom:   38    charge:    1.8275    magn:    0.0044    constr:    0.0000
     atom:   39    charge:    1.8206    magn:    0.0165    constr:    0.0000
     atom:   40    charge:    1.8265    magn:    0.0036    constr:    0.0000
     atom:   41    charge:    1.8297    magn:    0.0085    constr:    0.0000
     atom:   42    charge:    1.8280    magn:    0.0177    constr:    0.0000
     atom:   43    charge:    1.8216    magn:    0.0047    constr:    0.0000
     atom:   44    charge:    1.8280    magn:    0.0177    constr:    0.0000
     atom:   45    charge:    1.8216    magn:    0.0047    constr:    0.0000
     atom:   46    charge:    1.8280    magn:    0.0177    constr:    0.0000
     atom:   47    charge:    1.8240    magn:    0.0061    constr:    0.0000
     atom:   48    charge:    1.8297    magn:    0.0085    constr:    0.0000
     atom:   49    charge:    1.8216    magn:    0.0047    constr:    0.0000
     atom:   50    charge:    1.8216    magn:    0.0047    constr:    0.0000
     atom:   51    charge:    1.8585    magn:    0.2029    constr:    0.0000
     atom:   52    charge:    1.8265    magn:    0.0036    constr:    0.0000
     atom:   53    charge:    1.8280    magn:    0.0177    constr:    0.0000
     atom:   54    charge:    1.8280    magn:    0.0177    constr:    0.0000
     atom:   55    charge:    1.8240    magn:    0.0061    constr:    0.0000
     atom:   56    charge:    1.8297    magn:    0.0085    constr:    0.0000
     atom:   57    charge:    1.8216    magn:    0.0047    constr:    0.0000
     atom:   58    charge:    1.8265    magn:    0.0036    constr:    0.0000
     atom:   59    charge:    1.8280    magn:    0.0177    constr:    0.0000
     atom:   60    charge:    1.8216    magn:    0.0047    constr:    0.0000
     atom:   61    charge:    1.8585    magn:    0.2029    constr:    0.0000
     atom:   62    charge:    1.8226    magn:   -0.0016    constr:    0.0000
     atom:   63    charge:    2.9222    magn:    0.1225    constr:    0.0000

     total cpu time spent up to now is       33.7 secs

     End of self-consistent calculation

 ------ SPIN UP ------------


          k = 0.0000 0.0000 0.0000 ( 24207 PWs)   bands (ev):

    -8.6133  -7.1252  -6.2989  -6.2989  -6.1730  -6.1730  -5.9053  -5.0081
    -4.1564  -4.1564  -4.1363  -4.1363  -4.0386  -4.0386  -4.0240  -3.9704
    -3.8714  -3.8714  -3.3826  -2.9797  -2.6870  -2.6870  -2.1442  -0.4057
    -0.4057  -0.3657  -0.3298  -0.1912   0.1398   0.1398   0.2557   0.2557
     0.3430   0.5753   0.7931   0.7931   0.9505   0.9563   0.9563   1.0127
     1.0127   1.0408   1.3113   1.3113   3.0138   3.8172   3.8172   4.0053
     4.1770   4.1770   4.1857   4.2112   4.2290   4.2290   4.3891   4.3891
     4.4417   4.4417   4.5489   4.6165   4.6222   4.6222   4.6349   4.7187
     4.7187   4.8612   4.9209   4.9209   4.9859   5.1627   5.1627   5.2395
     5.3129   5.3129   5.3553   5.3885   5.3885   5.9827   5.9827   6.0231
     6.5849   6.5849   6.6796   6.9028   6.9671   6.9671   7.4545   8.2535
     8.2535   8.3563   8.4237   8.4237   8.5998   8.5998   8.7480   8.7590
     8.7689   8.7689   8.8362   8.8362   8.8522   9.2223   9.2271   9.2271
     9.6204   9.6204   9.8539   9.8620   9.8629   9.8629   9.8667   9.9169
     9.9169   9.9520   9.9520   9.9537  10.0525  10.0525  10.2570  10.2758
    10.2758  10.5627  12.1725  12.3751  12.3751  13.6047  14.8930  14.8930
    17.2083  17.3110  17.3110  17.4499  17.5210  17.5210  17.7858  17.8761
    17.8761  17.9849  17.9849  18.2990  18.8584  18.8584  18.9229  20.4993
    20.7323  20.7323  20.8026  20.8542  20.8543  20.9508  20.9509  20.9522

     occupation numbers 
     1.0000   1.0000   1.0000   1.0000   1.0000   1.0000   1.0000   1.0000
     1.0000   1.0000   1.0000   1.0000   1.0000   1.0000   1.0000   1.0000
     1.0000   1.0000   1.0000   1.0000   1.0000   1.0000   1.0000   1.0000
     1.0000   1.0000   1.0000   1.0000   1.0000   1.0000   1.0000   1.0000
     1.0000   1.0000   1.0000   1.0000   1.0000   1.0000   1.0000   1.0000
     1.0000   1.0000   1.0000   1.0000   1.0000   1.0000   1.0000   1.0000
     1.0000   1.0000   1.0000   1.0000   1.0000   1.0000   1.0000   1.0000
     1.0000   1.0000   1.0000   1.0000   1.0000   1.0000   1.0000   1.0000
     1.0000   1.0000   1.0000   1.0000   1.0000   1.0000   1.0000   1.0000
     1.0000   1.0000   1.0000   1.0000   1.0000   1.0000   1.0000   1.0000
     1.0000   1.0000   1.0000   1.0000   1.0000   1.0000   1.0000   1.0000
     1.0000   1.0000   1.0000   1.0000   1.0000   1.0000   1.0000   1.0000
     1.0000   1.0000   1.0000   1.0000   1.0000   1.0000   1.0000   1.0000
     1.0000   1.0000   1.0000   1.0000   1.0000   1.0000   1.0000   1.0000
     1.0000   1.0000   1.0000   1.0000   1.0000   1.0000   1.0000   1.0000
     1.0000   1.0000   1.0000   1.0000   1.0000   1.0000   1.0000   1.0000
     0.0000   0.0000   0.0000   0.0000   0.0000   0.0000   0.0000   0.0000
     0.0000   0.0000   0.0000   0.0000   0.0000   0.0000   0.0000   0.0000
     0.0000   0.0000   0.0000   0.0000   0.0000   0.0000   0.0000   0.0000

          k = 0.0000 0.0000 0.3333 ( 24280 PWs)   bands (ev):

    -8.3947  -7.6163  -6.6882  -6.0547  -5.9319  -5.8367  -5.5161  -5.3103
    -5.1802  -5.0118  -4.5376  -4.1463  -3.8405  -3.8147  -3.6992  -3.4455
    -3.2351  -3.1585  -2.9457  -2.6162  -2.5213  -2.3905  -2.3373  -1.8032
    -0.8765  -0.7120  -0.5876  -0.3706   0.1428   0.2338   0.3322   0.3901
     0.4640   0.5409   0.5560   0.6530   0.7289   0.7336   0.9669   1.4525
     1.9684   1.9975   2.1445   2.1988   2.3897   2.4627   2.4674   2.7349
     2.9379   2.9867   3.1482   3.1555   3.8594   3.9357   4.0393   4.0546
     4.2749   4.3352   4.4864   4.5310   5.0374   5.0763   5.1120   5.1881
     5.1891   5.5733   5.5945   5.6970   5.7337   6.0313   6.0816   6.1621
     6.1712   6.3060   6.3776   6.4518   6.4843   6.5765   6.6009   6.7398
     6.7416   6.8769   6.8894   6.9188   7.1231   7.1497   7.1740   7.2521
     7.3817   7.4550   7.6518   7.7592   7.8188   8.0422   8.1225   8.2632
     8.2989   8.4317   8.6260   8.6856   8.7547   9.0620   9.1511   9.3399
     9.3527   9.6131   9.6308   9.7002   9.7710   9.9033   9.9226   9.9326
     9.9503  10.0053  10.0868  10.1052  10.1689  10.2527  10.2701  10.3435
    10.3769  11.0302  11.6751  11.6840  11.9402  13.3178  14.5804  14.7465
    17.1589  17.2813  17.9267  18.2486  18.3302  18.4746  18.5054  18.5874
    18.8068  18.8269  18.9818  19.0591  19.1676  19.7850  19.8353  20.3864
    20.6365  20.6474  20.7711  20.7807  20.8210  20.8259  20.8898  20.9401

     occupation numbers 
     1.0000   1.0000   1.0000   1.0000   1.0000   1.0000   1.0000   1.0000
     1.0000   1.0000   1.0000   1.0000   1.0000   1.0000   1.0000   1.0000
     1.0000   1.0000   1.0000   1.0000   1.0000   1.0000   1.0000   1.0000
     1.0000   1.0000   1.0000   1.0000   1.0000   1.0000   1.0000   1.0000
     1.0000   1.0000   1.0000   1.0000   1.0000   1.0000   1.0000   1.0000
     1.0000   1.0000   1.0000   1.0000   1.0000   1.0000   1.0000   1.0000
     1.0000   1.0000   1.0000   1.0000   1.0000   1.0000   1.0000   1.0000
     1.0000   1.0000   1.0000   1.0000   1.0000   1.0000   1.0000   1.0000
     1.0000   1.0000   1.0000   1.0000   1.0000   1.0000   1.0000   1.0000
     1.0000   1.0000   1.0000   1.0000   1.0000   1.0000   1.0000   1.0000
     1.0000   1.0000   1.0000   1.0000   1.0000   1.0000   1.0000   1.0000
     1.0000   1.0000   1.0000   1.0000   1.0000   1.0000   1.0000   1.0000
     1.0000   1.0000   1.0000   1.0000   1.0000   1.0000   1.0000   1.0000
     1.0000   1.0000   1.0000   1.0000   1.0000   1.0000   1.0000   1.0000
     1.0000   1.0000   1.0000   1.0000   1.0000   1.0000   1.0000   1.0000
     1.0000   1.0000   1.0000   1.0000   1.0000   1.0000   1.0000   1.0000
     0.0000   0.0000   0.0000   0.0000   0.0000   0.0000   0.0000   0.0000
     0.0000   0.0000   0.0000   0.0000   0.0000   0.0000   0.0000   0.0000
     0.0000   0.0000   0.0000   0.0000   0.0000   0.0000   0.0000   0.0000

          k = 0.0000 0.3333 0.3333 ( 24236 PWs)   bands (ev):

    -8.1975  -7.4563  -7.2412  -6.6143  -6.0091  -5.6912  -5.3629  -5.0339
    -4.9965  -4.8647  -4.5187  -4.2705  -4.2380  -3.9506  -3.5731  -3.5284
    -2.8103  -2.3923  -2.3397  -2.3333  -2.2065  -2.1969  -2.0602  -1.9095
    -1.5065  -1.3256  -1.1116  -0.9289  -0.5800  -0.0528   0.0574   0.1146
     0.1622   0.4526   0.6716   1.1674   1.1777   1.2995   1.3683   1.3684
     1.4347   1.4524   1.9356   2.0539   2.1117   2.3827   2.7232   2.8149
     2.9437   3.4845   3.6393   3.6548   3.7651   3.7992   3.9560   4.0164
     4.0932   4.5306   4.6438   4.7926   5.0143   5.0157   5.1361   5.2934
     5.3304   5.5729   5.6162   5.6661   5.7315   5.9274   5.9964   6.0623
     6.1380   6.2212   6.2684   6.4793   6.5205   6.5831   6.6397   6.8346
     6.9062   6.9342   6.9948   7.0340   7.2214   7.2633   7.4762   7.6699
     7.9189   7.9195   8.0572   8.0626   8.1103   8.2129   8.2607   8.3049
     8.3247   8.3997   8.5261   8.6141   8.6786   8.7089   8.8356   8.8677
     9.0600   9.1638   9.2308   9.2969   9.4479   9.4671   9.5406   9.6277
     9.6933   9.7807   9.8942  10.0329  10.0479  10.1122  10.3807  10.6440
    10.9825  11.1831  11.5556  11.5658  12.1894  13.1167  14.5076  14.8237
    17.9937  18.1780  18.2181  18.2951  18.3364  18.7813  18.8551  18.9312
    19.1624  19.2035  19.4366  19.4689  19.6807  19.7736  19.9611  19.9795
    20.1762  20.4278  20.4631  20.4933  20.5577  20.5668  20.6105  20.6228

     occupation numbers 
     1.0000   1.0000   1.0000   1.0000   1.0000   1.0000   1.0000   1.0000
     1.0000   1.0000   1.0000   1.0000   1.0000   1.0000   1.0000   1.0000
     1.0000   1.0000   1.0000   1.0000   1.0000   1.0000   1.0000   1.0000
     1.0000   1.0000   1.0000   1.0000   1.0000   1.0000   1.0000   1.0000
     1.0000   1.0000   1.0000   1.0000   1.0000   1.0000   1.0000   1.0000
     1.0000   1.0000   1.0000   1.0000   1.0000   1.0000   1.0000   1.0000
     1.0000   1.0000   1.0000   1.0000   1.0000   1.0000   1.0000   1.0000
     1.0000   1.0000   1.0000   1.0000   1.0000   1.0000   1.0000   1.0000
     1.0000   1.0000   1.0000   1.0000   1.0000   1.0000   1.0000   1.0000
     1.0000   1.0000   1.0000   1.0000   1.0000   1.0000   1.0000   1.0000
     1.0000   1.0000   1.0000   1.0000   1.0000   1.0000   1.0000   1.0000
     1.0000   1.0000   1.0000   1.0000   1.0000   1.0000   1.0000   1.0000
     1.0000   1.0000   1.0000   1.0000   1.0000   1.0000   1.0000   1.0000
     1.0000   1.0000   1.0000   1.0000   1.0000   1.0000   1.0000   1.0000
     1.0000   1.0000   1.0000   1.0000   1.0000   1.0000   1.0000   1.0000
     1.0000   1.0000   1.0000   1.0000   1.0000   1.0000   1.0000   1.0000
     0.0000   0.0000   0.0000   0.0000   0.0000   0.0000   0.0000   0.0000
     0.0000   0.0000   0.0000   0.0000   0.0000   0.0000   0.0000   0.0000
     0.0000   0.0000   0.0000   0.0000   0.0000   0.0000   0.0000   0.0000

          k = 0.3333 0.3333 0.3333 ( 24303 PWs)   bands (ev):

    -8.0269  -7.2860  -6.9930  -6.9930  -6.3310  -6.2348  -6.2348  -5.4848
    -4.2801  -4.0463  -4.0463  -3.5756  -3.3930  -3.3930  -3.3463  -3.3463
    -3.3206  -2.9241  -2.6731  -2.6731  -1.9616  -1.9306  -1.9306  -1.5521
    -1.4665  -1.4665  -1.4035  -1.4035  -1.3570  -1.2315  -1.2315   0.0151
     0.8495   0.8495   0.9553   0.9657   0.9657   1.2682   1.8095   1.8095
     1.8658   1.8873   1.9896   1.9896   2.5528   2.5528   2.5900   2.6991
     2.7166   2.7166   3.1242   3.1242   3.5173   4.0379   4.2945   4.2945
     4.7971   4.8921   4.8921   4.9374   5.0796   5.0796   5.1299   5.2999
     5.2999   5.4054   5.4845   5.4845   5.5360   5.5360   5.6075   6.3326
     6.6613   6.6613   6.9225   6.9719   6.9747   6.9747   7.0660   7.0660
     7.1924   7.1924   7.2360   7.2438   7.2438   7.2651   7.3505   7.3505
     7.3554   7.4635   7.7280   7.7280   7.9113   7.9113   7.9620   7.9883
     8.1790   8.1790   8.2900   8.2900   8.2973   8.4262   8.4756   8.4756
     8.6710   8.6710   8.7588   9.0455   9.0822   9.5101   9.5101   9.7652
     9.7652  10.4777  10.4777  10.4810  10.4907  10.9240  10.9240  11.1293
    11.2721  11.2721  11.2734  11.6463  11.6463  12.9945  14.8026  14.8026
    18.0268  18.2265  18.2265  18.4369  18.6383  18.6383  19.1595  19.3662
    19.3662  19.5345  19.5345  19.5891  19.6035  19.6035  19.6331  19.7455
    19.7455  19.8672  19.9082  19.9082  19.9876  19.9876  20.0264  20.1319

     occupation numbers 
     1.0000   1.0000   1.0000   1.0000   1.0000   1.0000   1.0000   1.0000
     1.0000   1.0000   1.0000   1.0000   1.0000   1.0000   1.0000   1.0000
     1.0000   1.0000   1.0000   1.0000   1.0000   1.0000   1.0000   1.0000
     1.0000   1.0000   1.0000   1.0000   1.0000   1.0000   1.0000   1.0000
     1.0000   1.0000   1.0000   1.0000   1.0000   1.0000   1.0000   1.0000
     1.0000   1.0000   1.0000   1.0000   1.0000   1.0000   1.0000   1.0000
     1.0000   1.0000   1.0000   1.0000   1.0000   1.0000   1.0000   1.0000
     1.0000   1.0000   1.0000   1.0000   1.0000   1.0000   1.0000   1.0000
     1.0000   1.0000   1.0000   1.0000   1.0000   1.0000   1.0000   1.0000
     1.0000   1.0000   1.0000   1.0000   1.0000   1.0000   1.0000   1.0000
     1.0000   1.0000   1.0000   1.0000   1.0000   1.0000   1.0000   1.0000
     1.0000   1.0000   1.0000   1.0000   1.0000   1.0000   1.0000   1.0000
     1.0000   1.0000   1.0000   1.0000   1.0000   1.0000   1.0000   1.0000
     1.0000   1.0000   1.0000   1.0000   1.0000   1.0000   1.0000   1.0000
     1.0000   1.0000   1.0000   1.0000   1.0000   1.0000   1.0000   1.0000
     1.0000   1.0000   1.0000   1.0000   1.0000   1.0000   1.0000   1.0000
     0.0000   0.0000   0.0000   0.0000   0.0000   0.0000   0.0000   0.0000
     0.0000   0.0000   0.0000   0.0000   0.0000   0.0000   0.0000   0.0000
     0.0000   0.0000   0.0000   0.0000   0.0000   0.0000   0.0000   0.0000

          k =-0.3333 0.0000 0.3333 ( 24236 PWs)   bands (ev):

    -8.1833  -7.5672  -7.1144  -6.6079  -6.0496  -5.6953  -5.4028  -5.0495
    -4.9450  -4.7788  -4.5440  -4.3124  -4.2318  -4.0697  -3.6189  -3.3420
    -2.8162  -2.4325  -2.3755  -2.3004  -2.2083  -2.1573  -2.1220  -1.6767
    -1.6494  -1.3299  -1.1305  -0.9983  -0.6252  -0.0247   0.0648   0.1069
     0.2520   0.4672   0.8640   1.0302   1.1915   1.2121   1.2278   1.3841
     1.4706   1.5768   1.8305   1.8791   2.1202   2.5612   2.6519   2.8542
     2.9436   3.4725   3.6335   3.6935   3.7472   3.8923   4.0061   4.1156
     4.1659   4.3684   4.5753   4.7822   4.9504   4.9933   5.1731   5.2334
     5.3837   5.5375   5.6273   5.6619   5.7746   5.9909   6.0701   6.1127
     6.1609   6.2160   6.2569   6.4083   6.4531   6.6064   6.6262   6.8029
     6.8808   6.9479   6.9951   7.0854   7.2002   7.3675   7.4757   7.6420
     7.8195   7.8755   7.9395   8.0591   8.1662   8.2107   8.2471   8.2651
     8.3498   8.4246   8.5127   8.5767   8.7063   8.7454   8.8830   8.9664
     9.0588   9.1227   9.2143   9.3076   9.4239   9.4796   9.4948   9.6453
     9.7115   9.7363   9.9243  10.0325  10.0613  10.1098  10.4713  10.7283
    10.8812  11.1280  11.4392  11.5556  12.2176  13.3974  14.4189  14.7206
    17.9740  18.1909  18.2403  18.2939  18.3618  18.7650  18.9206  19.0920
    19.1055  19.2601  19.3322  19.4631  19.6939  19.8234  19.8512  19.9944
    20.2012  20.3205  20.3827  20.4901  20.5436  20.5574  20.6275  20.6752

     occupation numbers 
     1.0000   1.0000   1.0000   1.0000   1.0000   1.0000   1.0000   1.0000
     1.0000   1.0000   1.0000   1.0000   1.0000   1.0000   1.0000   1.0000
     1.0000   1.0000   1.0000   1.0000   1.0000   1.0000   1.0000   1.0000
     1.0000   1.0000   1.0000   1.0000   1.0000   1.0000   1.0000   1.0000
     1.0000   1.0000   1.0000   1.0000   1.0000   1.0000   1.0000   1.0000
     1.0000   1.0000   1.0000   1.0000   1.0000   1.0000   1.0000   1.0000
     1.0000   1.0000   1.0000   1.0000   1.0000   1.0000   1.0000   1.0000
     1.0000   1.0000   1.0000   1.0000   1.0000   1.0000   1.0000   1.0000
     1.0000   1.0000   1.0000   1.0000   1.0000   1.0000   1.0000   1.0000
     1.0000   1.0000   1.0000   1.0000   1.0000   1.0000   1.0000   1.0000
     1.0000   1.0000   1.0000   1.0000   1.0000   1.0000   1.0000   1.0000
     1.0000   1.0000   1.0000   1.0000   1.0000   1.0000   1.0000   1.0000
     1.0000   1.0000   1.0000   1.0000   1.0000   1.0000   1.0000   1.0000
     1.0000   1.0000   1.0000   1.0000   1.0000   1.0000   1.0000   1.0000
     1.0000   1.0000   1.0000   1.0000   1.0000   1.0000   1.0000   1.0000
     1.0000   1.0000   1.0000   1.0000   1.0000   1.0000   1.0000   1.0000
     0.0000   0.0000   0.0000   0.0000   0.0000   0.0000   0.0000   0.0000
     0.0000   0.0000   0.0000   0.0000   0.0000   0.0000   0.0000   0.0000
     0.0000   0.0000   0.0000   0.0000   0.0000   0.0000   0.0000   0.0000

          k = 0.3333-0.3333 0.3333 ( 24303 PWs)   bands (ev):

    -8.0020  -7.4203  -6.9935  -6.8353  -6.5000  -6.2336  -6.0034  -5.5257
    -4.5742  -4.0464  -3.9488  -3.7386  -3.4442  -3.3742  -3.3331  -3.2244
    -3.0857  -2.8971  -2.6990  -2.4465  -2.1117  -1.9077  -1.8640  -1.7338
    -1.4936  -1.4882  -1.4363  -1.3681  -1.3574  -1.2515  -1.1838  -0.1163
     0.7241   0.8561   0.9325   0.9750   1.0546   1.4038   1.7090   1.7548
     1.8531   1.9332   2.0302   2.2144   2.5608   2.5866   2.6777   2.7064
     2.7138   2.7697   2.8937   3.1595   3.4752   3.9628   4.2165   4.2975
     4.7753   4.7815   4.8200   4.9968   5.0130   5.0482   5.1672   5.2366
     5.2553   5.4107   5.4254   5.5104   5.6561   5.7739   5.8125   6.4257
     6.6270   6.7156   6.9034   6.9169   6.9591   7.0286   7.0701   7.0783
     7.1474   7.1493   7.2180   7.2457   7.2625   7.3143   7.3446   7.3520
     7.3715   7.4493   7.7152   7.7204   7.8113   7.9062   7.9411   7.9452
     8.1300   8.1522   8.2527   8.2777   8.3447   8.3897   8.4044   8.4853
     8.6865   8.7181   8.9174   8.9991   9.0706   9.5130   9.5714   9.5919
     9.8393  10.3831  10.4231  10.5113  10.5372  10.8614  10.9153  11.1334
    11.2225  11.2477  11.2830  11.7122  11.7215  13.3792  14.4931  14.8008
    18.0312  18.2611  18.3187  18.5046  18.6404  18.7064  19.1283  19.3537
    19.4395  19.4833  19.5148  19.5501  19.5910  19.6225  19.6414  19.7073
    19.7461  19.7816  19.8936  19.8956  19.9721  19.9834  20.0380  20.1416

     occupation numbers 
     1.0000   1.0000   1.0000   1.0000   1.0000   1.0000   1.0000   1.0000
     1.0000   1.0000   1.0000   1.0000   1.0000   1.0000   1.0000   1.0000
     1.0000   1.0000   1.0000   1.0000   1.0000   1.0000   1.0000   1.0000
     1.0000   1.0000   1.0000   1.0000   1.0000   1.0000   1.0000   1.0000
     1.0000   1.0000   1.0000   1.0000   1.0000   1.0000   1.0000   1.0000
     1.0000   1.0000   1.0000   1.0000   1.0000   1.0000   1.0000   1.0000
     1.0000   1.0000   1.0000   1.0000   1.0000   1.0000   1.0000   1.0000
     1.0000   1.0000   1.0000   1.0000   1.0000   1.0000   1.0000   1.0000
     1.0000   1.0000   1.0000   1.0000   1.0000   1.0000   1.0000   1.0000
     1.0000   1.0000   1.0000   1.0000   1.0000   1.0000   1.0000   1.0000
     1.0000   1.0000   1.0000   1.0000   1.0000   1.0000   1.0000   1.0000
     1.0000   1.0000   1.0000   1.0000   1.0000   1.0000   1.0000   1.0000
     1.0000   1.0000   1.0000   1.0000   1.0000   1.0000   1.0000   1.0000
     1.0000   1.0000   1.0000   1.0000   1.0000   1.0000   1.0000   1.0000
     1.0000   1.0000   1.0000   1.0000   1.0000   1.0000   1.0000   1.0000
     1.0000   1.0000   1.0000   1.0000   1.0000   1.0000   1.0000   1.0000
     0.0000   0.0000   0.0000   0.0000   0.0000   0.0000   0.0000   0.0000
     0.0000   0.0000   0.0000   0.0000   0.0000   0.0000   0.0000   0.0000
     0.0000   0.0000   0.0000   0.0000   0.0000   0.0000   0.0000   0.0000

 ------ SPIN DOWN ----------


          k = 0.0000 0.0000 0.0000 ( 24207 PWs)   bands (ev):

    -8.5766  -7.0517  -6.2802  -6.2802  -6.1371  -6.1371  -5.8682  -4.9623
    -4.1372  -4.1372  -4.1183  -4.1183  -4.0035  -3.9882  -3.9882  -3.9549
    -3.8332  -3.8332  -3.3403  -2.9519  -2.6402  -2.6402  -2.0191  -0.3879
    -0.3879  -0.3455  -0.3028  -0.1137   0.1581   0.1581   0.2884   0.2884
     0.3638   0.6134   0.8073   0.8073   0.9802   0.9816   0.9816   1.0290
     1.0290   1.0525   1.4532   1.4532   3.1255   3.8519   3.8519   4.0388
     4.2055   4.2127   4.2127   4.2441   4.2441   4.2501   4.4214   4.4214
     4.4719   4.4719   4.5669   4.6404   4.6404   4.6446   4.6463   4.7552
     4.7552   4.8806   4.9479   4.9479   5.0736   5.1964   5.1964   5.2713
     5.3242   5.3242   5.3645   5.4384   5.4384   6.0360   6.0360   6.0720
     6.6136   6.6136   6.7058   6.9776   7.0466   7.0466   7.6243   8.2924
     8.2924   8.3976   8.4548   8.4548   8.6335   8.6335   8.7697   8.7874
     8.7874   8.8253   8.8692   8.8761   8.8761   9.2576   9.2582   9.2582
     9.6506   9.6506   9.8651   9.8742   9.8828   9.8828   9.8961   9.9349
     9.9349   9.9705   9.9770   9.9770  10.0847  10.0847  10.3032  10.3264
    10.3264  11.0437  12.4899  12.4899  12.4977  14.3102  15.9872  15.9872
    17.2518  17.3293  17.3293  17.4738  17.5689  17.5689  17.8209  17.8972
    17.8972  18.0206  18.0206  18.4163  18.9339  18.9339  18.9720  20.5685
    20.7481  20.7481  20.8141  20.8789  20.8789  20.9702  20.9731  20.9732

     occupation numbers 
     1.0000   1.0000   1.0000   1.0000   1.0000   1.0000   1.0000   1.0000
     1.0000   1.0000   1.0000   1.0000   1.0000   1.0000   1.0000   1.0000
     1.0000   1.0000   1.0000   1.0000   1.0000   1.0000   1.0000   1.0000
     1.0000   1.0000   1.0000   1.0000   1.0000   1.0000   1.0000   1.0000
     1.0000   1.0000   1.0000   1.0000   1.0000   1.0000   1.0000   1.0000
     1.0000   1.0000   1.0000   1.0000   1.0000   1.0000   1.0000   1.0000
     1.0000   1.0000   1.0000   1.0000   1.0000   1.0000   1.0000   1.0000
     1.0000   1.0000   1.0000   1.0000   1.0000   1.0000   1.0000   1.0000
     1.0000   1.0000   1.0000   1.0000   1.0000   1.0000   1.0000   1.0000
     1.0000   1.0000   1.0000   1.0000   1.0000   1.0000   1.0000   1.0000
     1.0000   1.0000   1.0000   1.0000   1.0000   1.0000   1.0000   1.0000
     1.0000   1.0000   1.0000   1.0000   1.0000   1.0000   1.0000   1.0000
     1.0000   1.0000   1.0000   1.0000   1.0000   1.0000   1.0000   1.0000
     1.0000   1.0000   1.0000   1.0000   1.0000   1.0000   1.0000   1.0000
     1.0000   1.0000   1.0000   1.0000   1.0000   1.0000   1.0000   1.0000
     1.0000   1.0000   1.0000   1.0000   1.0000   0.0000   1.0000   0.0000
     0.0000   0.0000   0.0000   0.0000   0.0000   0.0000   0.0000   0.0000
     0.0000   0.0000   0.0000   0.0000   0.0000   0.0000   0.0000   0.0000
     0.0000   0.0000   0.0000   0.0000   0.0000   0.0000   0.0000   0.0000

          k = 0.0000 0.0000 0.3333 ( 24280 PWs)   bands (ev):

    -8.3558  -7.5756  -6.6223  -6.0362  -5.8984  -5.8106  -5.4928  -5.2912
    -5.1377  -4.9625  -4.5026  -4.1190  -3.8015  -3.7892  -3.6716  -3.4182
    -3.1944  -3.1157  -2.9066  -2.5883  -2.5013  -2.3479  -2.2909  -1.7222
    -0.8246  -0.6916  -0.5520  -0.3128   0.1833   0.2512   0.3562   0.4112
     0.4910   0.5743   0.5805   0.6790   0.7530   0.7721   1.0504   1.5112
     2.0041   2.0188   2.1824   2.2302   2.4337   2.5017   2.5039   2.7632
     2.9741   3.0080   3.2149   3.2432   3.8809   3.9728   4.0638   4.0737
     4.2952   4.3847   4.5263   4.5731   5.0757   5.1381   5.1560   5.2160
     5.2263   5.6106   5.6193   5.7342   5.7754   6.0658   6.1078   6.1998
     6.2065   6.3255   6.4076   6.4731   6.5262   6.6247   6.6369   6.7665
     6.7717   6.9134   6.9193   6.9601   7.1625   7.1683   7.2063   7.2871
     7.4291   7.5008   7.7381   7.8004   7.8707   8.0652   8.1539   8.3011
     8.3206   8.4549   8.6866   8.7449   8.7897   9.1198   9.2326   9.3854
     9.3924   9.6518   9.6602   9.7162   9.8072   9.9155   9.9490   9.9558
     9.9958  10.0357  10.1231  10.1445  10.1999  10.2947  10.3077  10.4206
    10.4269  11.3032  11.7389  11.7986  12.1252  14.2015  15.6869  15.8858
    17.1972  17.3146  17.9544  18.2818  18.3482  18.4973  18.5291  18.6296
    18.8443  18.8466  19.0243  19.1052  19.2555  19.8395  19.8802  20.4417
    20.6562  20.6844  20.7896  20.7966  20.8343  20.8538  20.9187  20.9611

     occupation numbers 
     1.0000   1.0000   1.0000   1.0000   1.0000   1.0000   1.0000   1.0000
     1.0000   1.0000   1.0000   1.0000   1.0000   1.0000   1.0000   1.0000
     1.0000   1.0000   1.0000   1.0000   1.0000   1.0000   1.0000   1.0000
     1.0000   1.0000   1.0000   1.0000   1.0000   1.0000   1.0000   1.0000
     1.0000   1.0000   1.0000   1.0000   1.0000   1.0000   1.0000   1.0000
     1.0000   1.0000   1.0000   1.0000   1.0000   1.0000   1.0000   1.0000
     1.0000   1.0000   1.0000   1.0000   1.0000   1.0000   1.0000   1.0000
     1.0000   1.0000   1.0000   1.0000   1.0000   1.0000   1.0000   1.0000
     1.0000   1.0000   1.0000   1.0000   1.0000   1.0000   1.0000   1.0000
     1.0000   1.0000   1.0000   1.0000   1.0000   1.0000   1.0000   1.0000
     1.0000   1.0000   1.0000   1.0000   1.0000   1.0000   1.0000   1.0000
     1.0000   1.0000   1.0000   1.0000   1.0000   1.0000   1.0000   1.0000
     1.0000   1.0000   1.0000   1.0000   1.0000   1.0000   1.0000   1.0000
     1.0000   1.0000   1.0000   1.0000   1.0000   1.0000   1.0000   1.0000
     1.0000   1.0000   1.0000   1.0000   1.0000   1.0000   1.0000   1.0000
     1.0000   1.0000   1.0000   1.0000   1.0000   0.0000   1.0000   0.0000
     0.0000   0.0000   0.0000   0.0000   0.0000   0.0000   0.0000   0.0000
     0.0000   0.0000   0.0000   0.0000   0.0000   0.0000   0.0000   0.0000
     0.0000   0.0000   0.0000   0.0000   0.0000   0.0000   0.0000   0.0000

          k = 0.0000 0.3333 0.3333 ( 24236 PWs)   bands (ev):

    -8.1544  -7.4102  -7.2136  -6.5735  -5.9693  -5.6617  -5.3254  -4.9958
    -4.9780  -4.8398  -4.4741  -4.2438  -4.2078  -3.9037  -3.5259  -3.4991
    -2.7712  -2.3710  -2.3105  -2.3094  -2.1710  -2.1660  -2.0143  -1.8680
    -1.4720  -1.2970  -1.0656  -0.8817  -0.4994  -0.0065   0.0764   0.1366
     0.1995   0.4961   0.7151   1.1925   1.1990   1.3197   1.4012   1.4058
     1.4704   1.4939   1.9628   2.1051   2.1759   2.4416   2.7461   2.8612
     2.9898   3.5415   3.6665   3.6778   3.8005   3.8216   3.9990   4.0411
     4.1432   4.5968   4.6728   4.8462   5.0377   5.0488   5.1689   5.3239
     5.3735   5.6116   5.6431   5.7202   5.7716   5.9554   6.0359   6.0982
     6.1508   6.2553   6.3002   6.5145   6.5417   6.6149   6.6753   6.8698
     6.9268   6.9598   7.0555   7.0629   7.2605   7.3054   7.5322   7.7243
     7.9549   7.9952   8.0821   8.0952   8.1344   8.2427   8.2924   8.3429
     8.3616   8.4235   8.5665   8.6428   8.7309   8.7338   8.8845   8.9023
     9.0849   9.2141   9.2606   9.3394   9.4877   9.5035   9.6018   9.6528
     9.7394   9.8234   9.9278  10.0737  10.0885  10.1437  10.4514  10.7771
    11.0797  11.2461  11.5825  11.8472  12.2583  14.0832  15.6313  15.9279
    18.0421  18.2058  18.2581  18.3176  18.3691  18.8075  18.8767  18.9648
    19.1983  19.2349  19.4702  19.4964  19.7090  19.8156  19.9914  20.0204
    20.2078  20.4539  20.4855  20.5181  20.5830  20.5969  20.6285  20.6524

     occupation numbers 
     1.0000   1.0000   1.0000   1.0000   1.0000   1.0000   1.0000   1.0000
     1.0000   1.0000   1.0000   1.0000   1.0000   1.0000   1.0000   1.0000
     1.0000   1.0000   1.0000   1.0000   1.0000   1.0000   1.0000   1.0000
     1.0000   1.0000   1.0000   1.0000   1.0000   1.0000   1.0000   1.0000
     1.0000   1.0000   1.0000   1.0000   1.0000   1.0000   1.0000   1.0000
     1.0000   1.0000   1.0000   1.0000   1.0000   1.0000   1.0000   1.0000
     1.0000   1.0000   1.0000   1.0000   1.0000   1.0000   1.0000   1.0000
     1.0000   1.0000   1.0000   1.0000   1.0000   1.0000   1.0000   1.0000
     1.0000   1.0000   1.0000   1.0000   1.0000   1.0000   1.0000   1.0000
     1.0000   1.0000   1.0000   1.0000   1.0000   1.0000   1.0000   1.0000
     1.0000   1.0000   1.0000   1.0000   1.0000   1.0000   1.0000   1.0000
     1.0000   1.0000   1.0000   1.0000   1.0000   1.0000   1.0000   1.0000
     1.0000   1.0000   1.0000   1.0000   1.0000   1.0000   1.0000   1.0000
     1.0000   1.0000   1.0000   1.0000   1.0000   1.0000   1.0000   1.0000
     1.0000   1.0000   1.0000   1.0000   1.0000   1.0000   1.0000   1.0000
     1.0000   1.0000   1.0000   1.0000   1.0000   0.0000   1.0000   0.0000
     0.0000   0.0000   0.0000   0.0000   0.0000   0.0000   0.0000   0.0000
     0.0000   0.0000   0.0000   0.0000   0.0000   0.0000   0.0000   0.0000
     0.0000   0.0000   0.0000   0.0000   0.0000   0.0000   0.0000   0.0000

          k = 0.3333 0.3333 0.3333 ( 24303 PWs)   bands (ev):

    -7.9774  -7.2398  -6.9663  -6.9663  -6.2952  -6.2049  -6.2049  -5.4344
    -4.2092  -4.0206  -4.0206  -3.5352  -3.3631  -3.3631  -3.3178  -3.3178
    -3.3001  -2.8997  -2.6287  -2.6287  -1.9365  -1.9100  -1.9100  -1.5300
    -1.4475  -1.4475  -1.3779  -1.3779  -1.3349  -1.1419  -1.1419   0.1419
     0.8734   0.8734   0.9928   0.9928   1.0222   1.3037   1.8357   1.8357
     1.8806   1.9384   2.0238   2.0238   2.5784   2.5784   2.6188   2.7166
     2.7447   2.7447   3.2101   3.2101   3.5544   4.1133   4.3223   4.3223
     4.8592   4.9314   4.9314   4.9544   5.1022   5.1022   5.1833   5.3312
     5.3312   5.4310   5.5113   5.5113   5.5736   5.5736   5.6604   6.4259
     6.7107   6.7107   6.9358   7.0004   7.0004   7.0130   7.0901   7.0901
     7.2156   7.2156   7.2498   7.2682   7.2682   7.2918   7.3802   7.3814
     7.3814   7.5215   7.7687   7.7687   7.9376   7.9376   7.9839   8.0093
     8.2109   8.2109   8.3156   8.3156   8.3176   8.4406   8.5246   8.5246
     8.7060   8.7060   8.8578   9.0834   9.1577   9.5617   9.5617   9.8435
     9.8435  10.5031  10.5031  10.5134  10.6230  10.9774  10.9774  11.2969
    11.2986  11.2986  11.5731  11.6862  11.6862  13.9250  15.9399  15.9399
    18.0884  18.2508  18.2508  18.4627  18.6688  18.6688  19.1934  19.3814
    19.3814  19.5569  19.5569  19.6030  19.6279  19.6279  19.6531  19.7631
    19.7631  19.8922  19.9380  19.9380  20.0257  20.0257  20.0405  20.1639

     occupation numbers 
     1.0000   1.0000   1.0000   1.0000   1.0000   1.0000   1.0000   1.0000
     1.0000   1.0000   1.0000   1.0000   1.0000   1.0000   1.0000   1.0000
     1.0000   1.0000   1.0000   1.0000   1.0000   1.0000   1.0000   1.0000
     1.0000   1.0000   1.0000   1.0000   1.0000   1.0000   1.0000   1.0000
     1.0000   1.0000   1.0000   1.0000   1.0000   1.0000   1.0000   1.0000
     1.0000   1.0000   1.0000   1.0000   1.0000   1.0000   1.0000   1.0000
     1.0000   1.0000   1.0000   1.0000   1.0000   1.0000   1.0000   1.0000
     1.0000   1.0000   1.0000   1.0000   1.0000   1.0000   1.0000   1.0000
     1.0000   1.0000   1.0000   1.0000   1.0000   1.0000   1.0000   1.0000
     1.0000   1.0000   1.0000   1.0000   1.0000   1.0000   1.0000   1.0000
     1.0000   1.0000   1.0000   1.0000   1.0000   1.0000   1.0000   1.0000
     1.0000   1.0000   1.0000   1.0000   1.0000   1.0000   1.0000   1.0000
     1.0000   1.0000   1.0000   1.0000   1.0000   1.0000   1.0000   1.0000
     1.0000   1.0000   1.0000   1.0000   1.0000   1.0000   1.0000   1.0000
     1.0000   1.0000   1.0000   1.0000   1.0000   1.0000   1.0000   1.0000
     1.0000   1.0000   1.0000   1.0000   1.0000   0.0000   1.0000   0.0000
     0.0000   0.0000   0.0000   0.0000   0.0000   0.0000   0.0000   0.0000
     0.0000   0.0000   0.0000   0.0000   0.0000   0.0000   0.0000   0.0000
     0.0000   0.0000   0.0000   0.0000   0.0000   0.0000   0.0000   0.0000

          k =-0.3333 0.0000 0.3333 ( 24236 PWs)   bands (ev):

    -8.1397  -7.5274  -7.0836  -6.5615  -6.0133  -5.6691  -5.3622  -5.0327
    -4.9020  -4.7436  -4.5199  -4.2753  -4.1955  -4.0381  -3.5774  -3.3036
    -2.7712  -2.4081  -2.3582  -2.2782  -2.1657  -2.1273  -2.0882  -1.6558
    -1.5673  -1.2970  -1.0985  -0.9429  -0.5601  -0.0068   0.0889   0.1421
     0.2973   0.5150   0.9310   1.0591   1.2117   1.2321   1.2613   1.4035
     1.5013   1.6211   1.8826   1.9061   2.1467   2.6244   2.7042   2.8993
     2.9912   3.5182   3.6690   3.7138   3.7764   3.9197   4.0475   4.1455
     4.2300   4.4219   4.6106   4.8352   4.9716   5.0241   5.2054   5.2680
     5.4253   5.5780   5.6523   5.7073   5.8206   6.0226   6.0853   6.1458
     6.1911   6.2471   6.2950   6.4415   6.4863   6.6306   6.6573   6.8225
     6.9045   6.9734   7.0343   7.1334   7.2540   7.4219   7.5332   7.6801
     7.9082   7.9258   7.9665   8.0744   8.1942   8.2326   8.2724   8.3002
     8.3831   8.4613   8.5691   8.6027   8.7525   8.7739   8.9159   8.9925
     9.1022   9.1566   9.2595   9.3475   9.4697   9.5209   9.5255   9.6862
     9.7483   9.7929   9.9533  10.0622  10.0967  10.1512  10.5173  10.9380
    10.9725  11.2006  11.5006  11.7225  12.3653  14.3121  15.5250  15.8412
    18.0095  18.2175  18.2688  18.3234  18.3952  18.7875  18.9462  19.1230
    19.1318  19.2892  19.3965  19.4963  19.7245  19.8698  19.8820  20.0385
    20.2333  20.3525  20.4130  20.5090  20.5644  20.5828  20.6508  20.7017

     occupation numbers 
     1.0000   1.0000   1.0000   1.0000   1.0000   1.0000   1.0000   1.0000
     1.0000   1.0000   1.0000   1.0000   1.0000   1.0000   1.0000   1.0000
     1.0000   1.0000   1.0000   1.0000   1.0000   1.0000   1.0000   1.0000
     1.0000   1.0000   1.0000   1.0000   1.0000   1.0000   1.0000   1.0000
     1.0000   1.0000   1.0000   1.0000   1.0000   1.0000   1.0000   1.0000
     1.0000   1.0000   1.0000   1.0000   1.0000   1.0000   1.0000   1.0000
     1.0000   1.0000   1.0000   1.0000   1.0000   1.0000   1.0000   1.0000
     1.0000   1.0000   1.0000   1.0000   1.0000   1.0000   1.0000   1.0000
     1.0000   1.0000   1.0000   1.0000   1.0000   1.0000   1.0000   1.0000
     1.0000   1.0000   1.0000   1.0000   1.0000   1.0000   1.0000   1.0000
     1.0000   1.0000   1.0000   1.0000   1.0000   1.0000   1.0000   1.0000
     1.0000   1.0000   1.0000   1.0000   1.0000   1.0000   1.0000   1.0000
     1.0000   1.0000   1.0000   1.0000   1.0000   1.0000   1.0000   1.0000
     1.0000   1.0000   1.0000   1.0000   1.0000   1.0000   1.0000   1.0000
     1.0000   1.0000   1.0000   1.0000   1.0000   1.0000   1.0000   1.0000
     1.0000   1.0000   1.0000   1.0000   1.0000   0.0000   1.0000   0.0000
     0.0000   0.0000   0.0000   0.0000   0.0000   0.0000   0.0000   0.0000
     0.0000   0.0000   0.0000   0.0000   0.0000   0.0000   0.0000   0.0000
     0.0000   0.0000   0.0000   0.0000   0.0000   0.0000   0.0000   0.0000

          k = 0.3333-0.3333 0.3333 ( 24303 PWs)   bands (ev):

    -7.9511  -7.3803  -6.9669  -6.8065  -6.4713  -6.2035  -5.9582  -5.4789
    -4.5123  -4.0226  -3.9264  -3.6987  -3.4192  -3.3501  -3.3165  -3.1898
    -3.0553  -2.8698  -2.6588  -2.3842  -2.0662  -1.8809  -1.8325  -1.7117
    -1.4762  -1.4713  -1.4125  -1.3446  -1.3336  -1.1857  -1.0963  -0.0012
     0.7518   0.8805   0.9613   1.0002   1.0988   1.4501   1.7314   1.7909
     1.8749   1.9677   2.0609   2.2751   2.5997   2.6051   2.7005   2.7285
     2.7422   2.8230   2.9380   3.2524   3.5169   4.0241   4.2626   4.3265
     4.7977   4.8221   4.8718   5.0278   5.0346   5.0671   5.2147   5.2615
     5.2831   5.4379   5.4597   5.5441   5.7139   5.8247   5.8666   6.5128
     6.6558   6.7490   6.9301   6.9461   6.9751   7.0521   7.0860   7.1163
     7.1714   7.1784   7.2399   7.2759   7.2835   7.3542   7.3749   7.3795
     7.4020   7.4856   7.7541   7.7590   7.8556   7.9327   7.9650   7.9744
     8.1543   8.1793   8.2740   8.3105   8.3793   8.4201   8.4332   8.5313
     8.7205   8.7508   8.9741   9.0329   9.1837   9.5609   9.6096   9.6946
     9.9346  10.4078  10.5358  10.5394  10.6089  10.9616  10.9636  11.2184
    11.2473  11.3107  11.4991  11.7499  11.8248  14.2950  15.6060  15.9465
    18.0619  18.2831  18.3465  18.5400  18.6665  18.7551  19.1623  19.3757
    19.4554  19.4977  19.5339  19.5688  19.6266  19.6469  19.6715  19.7280
    19.7621  19.8098  19.9212  19.9264  19.9929  20.0014  20.0723  20.1761

     occupation numbers 
     1.0000   1.0000   1.0000   1.0000   1.0000   1.0000   1.0000   1.0000
     1.0000   1.0000   1.0000   1.0000   1.0000   1.0000   1.0000   1.0000
     1.0000   1.0000   1.0000   1.0000   1.0000   1.0000   1.0000   1.0000
     1.0000   1.0000   1.0000   1.0000   1.0000   1.0000   1.0000   1.0000
     1.0000   1.0000   1.0000   1.0000   1.0000   1.0000   1.0000   1.0000
     1.0000   1.0000   1.0000   1.0000   1.0000   1.0000   1.0000   1.0000
     1.0000   1.0000   1.0000   1.0000   1.0000   1.0000   1.0000   1.0000
     1.0000   1.0000   1.0000   1.0000   1.0000   1.0000   1.0000   1.0000
     1.0000   1.0000   1.0000   1.0000   1.0000   1.0000   1.0000   1.0000
     1.0000   1.0000   1.0000   1.0000   1.0000   1.0000   1.0000   1.0000
     1.0000   1.0000   1.0000   1.0000   1.0000   1.0000   1.0000   1.0000
     1.0000   1.0000   1.0000   1.0000   1.0000   1.0000   1.0000   1.0000
     1.0000   1.0000   1.0000   1.0000   1.0000   1.0000   1.0000   1.0000
     1.0000   1.0000   1.0000   1.0000   1.0000   1.0000   1.0000   1.0000
     1.0000   1.0000   1.0000   1.0000   1.0000   1.0000   1.0000   1.0000
     1.0000   1.0000   1.0000   1.0000   1.0000   0.0000   1.0000   0.0000
     0.0000   0.0000   0.0000   0.0000   0.0000   0.0000   0.0000   0.0000
     0.0000   0.0000   0.0000   0.0000   0.0000   0.0000   0.0000   0.0000
     0.0000   0.0000   0.0000   0.0000   0.0000   0.0000   0.0000   0.0000

     highest occupied, lowest unoccupied level (ev):    14.8930   13.9250

!    total energy              =    -724.69383300 Ry
     Harris-Foulkes estimate   =    -724.69383212 Ry
     estimated scf accuracy    <       0.00000090 Ry

     The total energy is the sum of the following terms:

     one-electron contribution =     232.20074947 Ry
     hartree contribution      =      69.53409257 Ry
     xc contribution           =    -226.43830950 Ry
     ewald contribution        =    -799.99036553 Ry

     total magnetization       =     2.00 Bohr mag/cell
     absolute magnetization    =     2.21 Bohr mag/cell

     convergence has been achieved in  10 iterations

     Writing output data file di.save
 
     init_run     :      1.34s CPU      1.74s WALL (       1 calls)
     electrons    :     29.57s CPU     30.03s WALL (       1 calls)

     Called by init_run:
     wfcinit      :      0.75s CPU      0.83s WALL (       1 calls)
     wfcinit:atom :      0.01s CPU      0.01s WALL (       2 calls)
     wfcinit:wfcr :      0.71s CPU      0.77s WALL (       2 calls)
     potinit      :      0.07s CPU      0.08s WALL (       1 calls)

     Called by electrons:
     c_bands      :     27.73s CPU     28.15s WALL (      10 calls)
     sum_band     :      1.25s CPU      1.27s WALL (      10 calls)
     v_of_rho     :      0.40s CPU      0.41s WALL (      11 calls)
     v_h          :      0.01s CPU      0.01s WALL (      11 calls)
     v_xc         :      0.39s CPU      0.40s WALL (      11 calls)
     mix_rho      :      0.07s CPU      0.08s WALL (      10 calls)

     Called by c_bands:
     init_us_2    :      0.19s CPU      0.19s WALL (      42 calls)
     cegterg      :     23.34s CPU     23.72s WALL (      20 calls)

     Called by sum_band:

     Called by *egterg:
     h_psi        :      9.27s CPU      9.41s WALL (     135 calls)
     g_psi        :      0.05s CPU      0.06s WALL (     113 calls)
     cdiaghg      :      9.90s CPU      9.95s WALL (     133 calls)
     cegterg:over :      1.82s CPU      1.83s WALL (     113 calls)
     cegterg:upda :      1.39s CPU      1.40s WALL (     113 calls)
     cegterg:last :      0.52s CPU      0.52s WALL (      20 calls)

     Called by h_psi:
     h_psi:pot    :      9.17s CPU      9.29s WALL (     135 calls)
     h_psi:calbec :      1.98s CPU      2.00s WALL (     135 calls)
     vloc_psi     :      5.12s CPU      5.20s WALL (     135 calls)
     add_vuspsi   :      2.07s CPU      2.09s WALL (     135 calls)

     General routines
     calbec       :      1.98s CPU      2.00s WALL (     135 calls)
     fft          :      0.12s CPU      0.36s WALL (     228 calls)
     fftw         :      5.45s CPU      5.45s WALL (   20506 calls)
 
     Parallel routines
     fft_scatter  :      1.64s CPU      1.60s WALL (   20734 calls)
 
     PWSCF        :    33.71s CPU        37.30s WALL

 
   This run was terminated on:  10:32:58  12May2020            

=------------------------------------------------------------------------------=
   JOB DONE.
=------------------------------------------------------------------------------=
