
     Program PWSCF v.6.1 (svn rev. 13369) starts on 12May2020 at 10:28:31 

     This program is part of the open-source Quantum ESPRESSO suite
     for quantum simulation of materials; please cite
         "P. Giannozzi et al., J. Phys.:Condens. Matter 21 395502 (2009);
          URL http://www.quantum-espresso.org", 
     in publications or presentations arising from this work. More details at
     http://www.quantum-espresso.org/quote

     Parallel version (MPI), running on    96 processors
     K-points division:     npool     =       6
     R & G space division:  proc/nbgrp/npool/nimage =      16
     Reading input from scf.in
Warning: card &IONS ignored
Warning: card / ignored

     Current dimensions of program PWSCF are:
     Max number of different atomic species (ntypx) = 10
     Max number of k-points (npk) =  40000
     Max angular momentum in pseudopotentials (lmaxx) =  3

     Subspace diagonalization in iterative solution of the eigenvalue problem:
     a serial algorithm will be used

 
     Parallelization info
     --------------------
     sticks:   dense  smooth     PW     G-vecs:    dense   smooth      PW
     Min         252     252     67                12125    12125    1669
     Max         254     254     68                12129    12129    1672
     Sum        4049    4049   1085               194039   194039   26745
 


     bravais-lattice index     =            1
     lattice parameter (alat)  =      13.4862  a.u.
     unit-cell volume          =    2452.8358 (a.u.)^3
     number of atoms/cell      =           63
     number of atomic types    =            2
     number of electrons       =       254.00
     number of Kohn-Sham states=          152
     kinetic-energy cutoff     =      70.0000  Ry
     charge density cutoff     =     280.0000  Ry
     convergence threshold     =      1.0E-06
     mixing beta               =       0.5000
     number of iterations used =            8  plain     mixing
     Exchange-correlation      = PBE ( 1  4  3  4 0 0)

     celldm(1)=  13.486197  celldm(2)=   0.000000  celldm(3)=   0.000000
     celldm(4)=   0.000000  celldm(5)=   0.000000  celldm(6)=   0.000000

     crystal axes: (cart. coord. in units of alat)
               a(1) = (   1.000000   0.000000   0.000000 )  
               a(2) = (   0.000000   1.000000   0.000000 )  
               a(3) = (   0.000000   0.000000   1.000000 )  

     reciprocal axes: (cart. coord. in units 2 pi/alat)
               b(1) = (  1.000000  0.000000  0.000000 )  
               b(2) = (  0.000000  1.000000  0.000000 )  
               b(3) = (  0.000000  0.000000  1.000000 )  


     PseudoPot. # 1 for C  read from file:
     /home/tjsmart/Pseudo/C_ONCV_PBE-1.0.upf
     MD5 check sum: 72b63e32b2fd29504de26a4901699f60
     Pseudo is Norm-conserving, Zval =  4.0
     Generated using ONCVPSP code by D. R. Hamann
     Using radial grid of 1248 points,  4 beta functions with: 
                l(1) =   0
                l(2) =   0
                l(3) =   1
                l(4) =   1

     PseudoPot. # 2 for N  read from file:
     /home/tjsmart/Pseudo/N_ONCV_PBE-1.0.upf
     MD5 check sum: 09890da6b2972017450f7114a6086fad
     Pseudo is Norm-conserving, Zval =  5.0
     Generated using ONCVPSP code by D. R. Hamann
     Using radial grid of 1058 points,  4 beta functions with: 
                l(1) =   0
                l(2) =   0
                l(3) =   1
                l(4) =   1

     atomic species   valence    mass     pseudopotential
        C              4.00    12.01110     C ( 1.00)
        N              5.00    14.00670     N ( 1.00)

     Starting magnetic structure 
     atomic species   magnetization
        C            0.500
        N            0.500

      6 Sym. Ops. (no inversion) found


                                    s                        frac. trans.

      isym =  1     identity                                     

 cryst.   s( 1) = (     1          0          0      )
                  (     0          1          0      )
                  (     0          0          1      )

 cart.    s( 1) = (  1.0000000  0.0000000  0.0000000 )
                  (  0.0000000  1.0000000  0.0000000 )
                  (  0.0000000  0.0000000  1.0000000 )


      isym =  2     120 deg rotation - cart. axis [-1,-1,-1]     

 cryst.   s( 2) = (     0          0          1      )
                  (     1          0          0      )
                  (     0          1          0      )

 cart.    s( 2) = (  0.0000000  1.0000000  0.0000000 )
                  (  0.0000000  0.0000000  1.0000000 )
                  (  1.0000000  0.0000000  0.0000000 )


      isym =  3     120 deg rotation - cart. axis [1,1,1]        

 cryst.   s( 3) = (     0          1          0      )
                  (     0          0          1      )
                  (     1          0          0      )

 cart.    s( 3) = (  0.0000000  0.0000000  1.0000000 )
                  (  1.0000000  0.0000000  0.0000000 )
                  (  0.0000000  1.0000000  0.0000000 )


      isym =  4     inv. 180 deg rotation - cart. axis [1,-1,0]  

 cryst.   s( 4) = (     0          1          0      )
                  (     1          0          0      )
                  (     0          0          1      )

 cart.    s( 4) = (  0.0000000  1.0000000  0.0000000 )
                  (  1.0000000  0.0000000  0.0000000 )
                  (  0.0000000  0.0000000  1.0000000 )


      isym =  5     inv. 180 deg rotation - cart. axis [-1,0,1]  

 cryst.   s( 5) = (     0          0          1      )
                  (     0          1          0      )
                  (     1          0          0      )

 cart.    s( 5) = (  0.0000000  0.0000000  1.0000000 )
                  (  0.0000000  1.0000000  0.0000000 )
                  (  1.0000000  0.0000000  0.0000000 )


      isym =  6     inv. 180 deg rotation - cart. axis [0,1,-1]  

 cryst.   s( 6) = (     1          0          0      )
                  (     0          0          1      )
                  (     0          1          0      )

 cart.    s( 6) = (  1.0000000  0.0000000  0.0000000 )
                  (  0.0000000  0.0000000  1.0000000 )
                  (  0.0000000  1.0000000  0.0000000 )


     point group C_3v (3m)  
     there are  3 classes
     the character table:

       E     2C3   3s_v 
A_1    1.00  1.00  1.00
A_2    1.00  1.00 -1.00
E      2.00 -1.00  0.00

     the symmetry operations in each class and the name of the first element:

     E        1
          identity                                               
     2C3      2    3
          120 deg rotation - cart. axis [-1,-1,-1]               
     3s_v     4    5    6
          inv. 180 deg rotation - cart. axis [1,-1,0]            

   Cartesian axes

     site n.     atom                  positions (alat units)
         1           C   tau(   1) = (   0.3757280   0.3757280   0.8737130  )
         2           C   tau(   2) = (   0.5000109   0.0001406   0.0001406  )
         3           C   tau(   3) = (   0.5000695   0.0000019   0.5000695  )
         4           C   tau(   4) = (   0.0001406   0.5000109   0.0001406  )
         5           C   tau(   5) = (   0.0000019   0.5000695   0.5000695  )
         6           C   tau(   6) = (  -0.0001095  -0.0001095  -0.0001095  )
         7           C   tau(   7) = (   0.0001406   0.0001406   0.5000109  )
         8           C   tau(   8) = (   0.2501754   0.2501754  -0.0012939  )
         9           C   tau(   9) = (   0.2504776   0.2504776   0.4944470  )
        10           C   tau(  10) = (   0.2504582   0.7490061   0.0010341  )
        11           C   tau(  11) = (   0.2529369   0.7475925   0.5015404  )
        12           C   tau(  12) = (   0.7490061   0.2504582   0.0010341  )
        13           C   tau(  13) = (   0.7475925   0.2529369   0.5015404  )
        14           C   tau(  14) = (   0.7496791   0.7496791  -0.0000800  )
        15           C   tau(  15) = (   0.5000695   0.5000695   0.0000019  )
        16           C   tau(  16) = (   0.7492507   0.7492507   0.4988733  )
        17           C   tau(  17) = (   0.5015404   0.2529369   0.7475925  )
        18           C   tau(  18) = (   0.5015404   0.7475925   0.2529369  )
        19           C   tau(  19) = (   0.4988733   0.7492507   0.7492507  )
        20           C   tau(  20) = (  -0.0012939   0.2501754   0.2501754  )
        21           C   tau(  21) = (   0.0010341   0.2504582   0.7490061  )
        22           C   tau(  22) = (   0.0010341   0.7490061   0.2504582  )
        23           C   tau(  23) = (  -0.0000800   0.7496791   0.7496791  )
        24           C   tau(  24) = (   0.2504776   0.4944470   0.2504776  )
        25           C   tau(  25) = (   0.2529369   0.5015404   0.7475925  )
        26           C   tau(  26) = (   0.2501754  -0.0012939   0.2501754  )
        27           C   tau(  27) = (   0.2504582   0.0010341   0.7490061  )
        28           C   tau(  28) = (   0.7475925   0.5015404   0.2529369  )
        29           C   tau(  29) = (   0.7492507   0.4988733   0.7492507  )
        30           C   tau(  30) = (   0.4944470   0.2504776   0.2504776  )
        31           C   tau(  31) = (   0.7490061   0.0010341   0.2504582  )
        32           C   tau(  32) = (   0.6247650   0.8746014   0.6247650  )
        33           C   tau(  33) = (   0.6344054   0.3684434   0.6344054  )
        34           C   tau(  34) = (   0.3759369   0.8761980   0.8761980  )
        35           C   tau(  35) = (   0.3757280   0.8737130   0.3757280  )
        36           C   tau(  36) = (   0.8761980   0.3759369   0.8761980  )
        37           C   tau(  37) = (   0.8737130   0.3757280   0.3757280  )
        38           C   tau(  38) = (   0.8747555   0.8747555   0.8747555  )
        39           C   tau(  39) = (   0.8761980   0.8761980   0.3759369  )
        40           C   tau(  40) = (   0.1253863   0.1253863   0.8742083  )
        41           C   tau(  41) = (   0.1237042   0.1237042   0.3748646  )
        42           C   tau(  42) = (   0.1245228   0.6245986   0.8757831  )
        43           C   tau(  43) = (   0.1272039   0.6228151   0.3762939  )
        44           C   tau(  44) = (   0.6245986   0.1245228   0.8757831  )
        45           C   tau(  45) = (   0.6228151   0.1272039   0.3762939  )
        46           C   tau(  46) = (   0.6245986   0.8757831   0.1245228  )
        47           C   tau(  47) = (   0.6247650   0.6247650   0.8746014  )
        48           C   tau(  48) = (   0.3748646   0.1237042   0.1237042  )
        49           C   tau(  49) = (   0.3762939   0.1272039   0.6228151  )
        50           C   tau(  50) = (   0.3762939   0.6228151   0.1272039  )
        51           C   tau(  51) = (   0.3684434   0.6344054   0.6344054  )
        52           C   tau(  52) = (   0.8742083   0.1253863   0.1253863  )
        53           C   tau(  53) = (   0.8757831   0.1245228   0.6245986  )
        54           C   tau(  54) = (   0.8757831   0.6245986   0.1245228  )
        55           C   tau(  55) = (   0.8746014   0.6247650   0.6247650  )
        56           C   tau(  56) = (   0.1237042   0.3748646   0.1237042  )
        57           C   tau(  57) = (   0.1272039   0.3762939   0.6228151  )
        58           C   tau(  58) = (   0.1253863   0.8742083   0.1253863  )
        59           C   tau(  59) = (   0.1245228   0.8757831   0.6245986  )
        60           C   tau(  60) = (   0.6228151   0.3762939   0.1272039  )
        61           C   tau(  61) = (   0.6344054   0.6344054   0.3684434  )
        62           C   tau(  62) = (   0.7496791  -0.0000800   0.7496791  )
        63           N   tau(  63) = (   0.3640962   0.3640962   0.3640962  )

   Crystallographic axes

     site n.     atom                  positions (cryst. coord.)
         1           C   tau(   1) = (  0.3757280  0.3757280  0.8737130  )
         2           C   tau(   2) = (  0.5000109  0.0001406  0.0001406  )
         3           C   tau(   3) = (  0.5000695  0.0000019  0.5000695  )
         4           C   tau(   4) = (  0.0001406  0.5000109  0.0001406  )
         5           C   tau(   5) = (  0.0000019  0.5000695  0.5000695  )
         6           C   tau(   6) = ( -0.0001095 -0.0001095 -0.0001095  )
         7           C   tau(   7) = (  0.0001406  0.0001406  0.5000109  )
         8           C   tau(   8) = (  0.2501754  0.2501754 -0.0012939  )
         9           C   tau(   9) = (  0.2504776  0.2504776  0.4944470  )
        10           C   tau(  10) = (  0.2504582  0.7490061  0.0010341  )
        11           C   tau(  11) = (  0.2529369  0.7475925  0.5015404  )
        12           C   tau(  12) = (  0.7490061  0.2504582  0.0010341  )
        13           C   tau(  13) = (  0.7475925  0.2529369  0.5015404  )
        14           C   tau(  14) = (  0.7496791  0.7496791 -0.0000800  )
        15           C   tau(  15) = (  0.5000695  0.5000695  0.0000019  )
        16           C   tau(  16) = (  0.7492507  0.7492507  0.4988733  )
        17           C   tau(  17) = (  0.5015404  0.2529369  0.7475925  )
        18           C   tau(  18) = (  0.5015404  0.7475925  0.2529369  )
        19           C   tau(  19) = (  0.4988733  0.7492507  0.7492507  )
        20           C   tau(  20) = ( -0.0012939  0.2501754  0.2501754  )
        21           C   tau(  21) = (  0.0010341  0.2504582  0.7490061  )
        22           C   tau(  22) = (  0.0010341  0.7490061  0.2504582  )
        23           C   tau(  23) = ( -0.0000800  0.7496791  0.7496791  )
        24           C   tau(  24) = (  0.2504776  0.4944470  0.2504776  )
        25           C   tau(  25) = (  0.2529369  0.5015404  0.7475925  )
        26           C   tau(  26) = (  0.2501754 -0.0012939  0.2501754  )
        27           C   tau(  27) = (  0.2504582  0.0010341  0.7490061  )
        28           C   tau(  28) = (  0.7475925  0.5015404  0.2529369  )
        29           C   tau(  29) = (  0.7492507  0.4988733  0.7492507  )
        30           C   tau(  30) = (  0.4944470  0.2504776  0.2504776  )
        31           C   tau(  31) = (  0.7490061  0.0010341  0.2504582  )
        32           C   tau(  32) = (  0.6247650  0.8746014  0.6247650  )
        33           C   tau(  33) = (  0.6344054  0.3684434  0.6344054  )
        34           C   tau(  34) = (  0.3759369  0.8761980  0.8761980  )
        35           C   tau(  35) = (  0.3757280  0.8737130  0.3757280  )
        36           C   tau(  36) = (  0.8761980  0.3759369  0.8761980  )
        37           C   tau(  37) = (  0.8737130  0.3757280  0.3757280  )
        38           C   tau(  38) = (  0.8747555  0.8747555  0.8747555  )
        39           C   tau(  39) = (  0.8761980  0.8761980  0.3759369  )
        40           C   tau(  40) = (  0.1253863  0.1253863  0.8742083  )
        41           C   tau(  41) = (  0.1237042  0.1237042  0.3748646  )
        42           C   tau(  42) = (  0.1245228  0.6245986  0.8757831  )
        43           C   tau(  43) = (  0.1272039  0.6228151  0.3762939  )
        44           C   tau(  44) = (  0.6245986  0.1245228  0.8757831  )
        45           C   tau(  45) = (  0.6228151  0.1272039  0.3762939  )
        46           C   tau(  46) = (  0.6245986  0.8757831  0.1245228  )
        47           C   tau(  47) = (  0.6247650  0.6247650  0.8746014  )
        48           C   tau(  48) = (  0.3748646  0.1237042  0.1237042  )
        49           C   tau(  49) = (  0.3762939  0.1272039  0.6228151  )
        50           C   tau(  50) = (  0.3762939  0.6228151  0.1272039  )
        51           C   tau(  51) = (  0.3684434  0.6344054  0.6344054  )
        52           C   tau(  52) = (  0.8742083  0.1253863  0.1253863  )
        53           C   tau(  53) = (  0.8757831  0.1245228  0.6245986  )
        54           C   tau(  54) = (  0.8757831  0.6245986  0.1245228  )
        55           C   tau(  55) = (  0.8746014  0.6247650  0.6247650  )
        56           C   tau(  56) = (  0.1237042  0.3748646  0.1237042  )
        57           C   tau(  57) = (  0.1272039  0.3762939  0.6228151  )
        58           C   tau(  58) = (  0.1253863  0.8742083  0.1253863  )
        59           C   tau(  59) = (  0.1245228  0.8757831  0.6245986  )
        60           C   tau(  60) = (  0.6228151  0.3762939  0.1272039  )
        61           C   tau(  61) = (  0.6344054  0.6344054  0.3684434  )
        62           C   tau(  62) = (  0.7496791 -0.0000800  0.7496791  )
        63           N   tau(  63) = (  0.3640962  0.3640962  0.3640962  )

     number of k points=     6
                       cart. coord. in units 2pi/alat
        k(    1) = (   0.0000000   0.0000000   0.0000000), wk =   0.0370370
        k(    2) = (   0.0000000   0.0000000   0.3333333), wk =   0.2222222
        k(    3) = (   0.0000000   0.3333333   0.3333333), wk =   0.2222222
        k(    4) = (   0.3333333   0.3333333   0.3333333), wk =   0.0740741
        k(    5) = (  -0.3333333   0.0000000   0.3333333), wk =   0.2222222
        k(    6) = (   0.3333333  -0.3333333   0.3333333), wk =   0.2222222

                       cryst. coord.
        k(    1) = (   0.0000000   0.0000000   0.0000000), wk =   0.0370370
        k(    2) = (   0.0000000   0.0000000   0.3333333), wk =   0.2222222
        k(    3) = (   0.0000000   0.3333333   0.3333333), wk =   0.2222222
        k(    4) = (   0.3333333   0.3333333   0.3333333), wk =   0.0740741
        k(    5) = (  -0.3333333   0.0000000   0.3333333), wk =   0.2222222
        k(    6) = (   0.3333333  -0.3333333   0.3333333), wk =   0.2222222

     Dense  grid:   194039 G-vectors     FFT dimensions: (  72,  72,  72)

     Occupations read from input 

      Spin-up

        1.0000   1.0000   1.0000   1.0000   1.0000   1.0000   1.0000   1.0000
        1.0000   1.0000   1.0000   1.0000   1.0000   1.0000   1.0000   1.0000
        1.0000   1.0000   1.0000   1.0000   1.0000   1.0000   1.0000   1.0000
        1.0000   1.0000   1.0000   1.0000   1.0000   1.0000   1.0000   1.0000
        1.0000   1.0000   1.0000   1.0000   1.0000   1.0000   1.0000   1.0000
        1.0000   1.0000   1.0000   1.0000   1.0000   1.0000   1.0000   1.0000
        1.0000   1.0000   1.0000   1.0000   1.0000   1.0000   1.0000   1.0000
        1.0000   1.0000   1.0000   1.0000   1.0000   1.0000   1.0000   1.0000
        1.0000   1.0000   1.0000   1.0000   1.0000   1.0000   1.0000   1.0000
        1.0000   1.0000   1.0000   1.0000   1.0000   1.0000   1.0000   1.0000
        1.0000   1.0000   1.0000   1.0000   1.0000   1.0000   1.0000   1.0000
        1.0000   1.0000   1.0000   1.0000   1.0000   1.0000   1.0000   1.0000
        1.0000   1.0000   1.0000   1.0000   1.0000   1.0000   1.0000   1.0000
        1.0000   1.0000   1.0000   1.0000   1.0000   1.0000   1.0000   1.0000
        1.0000   1.0000   1.0000   1.0000   1.0000   1.0000   1.0000   1.0000
        1.0000   1.0000   1.0000   1.0000   1.0000   1.0000   1.0000   1.0000
        0.0000   0.0000   0.0000   0.0000   0.0000   0.0000   0.0000   0.0000
        0.0000   0.0000   0.0000   0.0000   0.0000   0.0000   0.0000   0.0000
        0.0000   0.0000   0.0000   0.0000   0.0000   0.0000   0.0000   0.0000

      Spin-down

        1.0000   1.0000   1.0000   1.0000   1.0000   1.0000   1.0000   1.0000
        1.0000   1.0000   1.0000   1.0000   1.0000   1.0000   1.0000   1.0000
        1.0000   1.0000   1.0000   1.0000   1.0000   1.0000   1.0000   1.0000
        1.0000   1.0000   1.0000   1.0000   1.0000   1.0000   1.0000   1.0000
        1.0000   1.0000   1.0000   1.0000   1.0000   1.0000   1.0000   1.0000
        1.0000   1.0000   1.0000   1.0000   1.0000   1.0000   1.0000   1.0000
        1.0000   1.0000   1.0000   1.0000   1.0000   1.0000   1.0000   1.0000
        1.0000   1.0000   1.0000   1.0000   1.0000   1.0000   1.0000   1.0000
        1.0000   1.0000   1.0000   1.0000   1.0000   1.0000   1.0000   1.0000
        1.0000   1.0000   1.0000   1.0000   1.0000   1.0000   1.0000   1.0000
        1.0000   1.0000   1.0000   1.0000   1.0000   1.0000   1.0000   1.0000
        1.0000   1.0000   1.0000   1.0000   1.0000   1.0000   1.0000   1.0000
        1.0000   1.0000   1.0000   1.0000   1.0000   1.0000   1.0000   1.0000
        1.0000   1.0000   1.0000   1.0000   1.0000   1.0000   1.0000   1.0000
        1.0000   1.0000   1.0000   1.0000   1.0000   1.0000   1.0000   1.0000
        1.0000   1.0000   1.0000   1.0000   1.0000   0.0000   1.0000   0.0000
        0.0000   0.0000   0.0000   0.0000   0.0000   0.0000   0.0000   0.0000
        0.0000   0.0000   0.0000   0.0000   0.0000   0.0000   0.0000   0.0000
        0.0000   0.0000   0.0000   0.0000   0.0000   0.0000   0.0000   0.0000

     Estimated max dynamical RAM per process >      60.23MB

     Estimated total allocated dynamical RAM >    5782.56MB
     Generating pointlists ...
     new r_m :   0.0853 (alat units)  1.1510 (a.u.) for type    1
     new r_m :   0.0853 (alat units)  1.1510 (a.u.) for type    2

     Initial potential from superposition of free atoms

     starting charge  252.99722, renormalised to  254.00000
     Starting wfc are  252 randomized atomic wfcs

     total cpu time spent up to now is        3.6 secs

     per-process dynamical memory:    59.5 Mb

     Self-consistent Calculation

     iteration #  1     ecut=    70.00 Ry     beta=0.50
     Davidson diagonalization with overlap
     ethr =  1.00E-02,  avg # of iterations =  3.0

     total cpu time spent up to now is        5.9 secs

     total energy              =    -722.44166323 Ry
     Harris-Foulkes estimate   =    -717.54730691 Ry
     estimated scf accuracy    <       6.66310794 Ry

     total magnetization       =     2.00 Bohr mag/cell
     absolute magnetization    =     3.67 Bohr mag/cell

     iteration #  2     ecut=    70.00 Ry     beta=0.50
     Davidson diagonalization with overlap
     ethr =  2.62E-03,  avg # of iterations =  2.0

     total cpu time spent up to now is        7.3 secs

     total energy              =    -724.23757119 Ry
     Harris-Foulkes estimate   =    -722.83359867 Ry
     estimated scf accuracy    <       1.48581641 Ry

     total magnetization       =     2.00 Bohr mag/cell
     absolute magnetization    =     2.51 Bohr mag/cell

     iteration #  3     ecut=    70.00 Ry     beta=0.50
     Davidson diagonalization with overlap
     ethr =  5.85E-04,  avg # of iterations =  6.9

     total cpu time spent up to now is       10.5 secs

     total energy              =    -724.52083490 Ry
     Harris-Foulkes estimate   =    -724.56707924 Ry
     estimated scf accuracy    <       0.75596370 Ry

     total magnetization       =     2.00 Bohr mag/cell
     absolute magnetization    =     2.14 Bohr mag/cell

     iteration #  4     ecut=    70.00 Ry     beta=0.50
     Davidson diagonalization with overlap
     ethr =  2.98E-04,  avg # of iterations =  6.0

     total cpu time spent up to now is       13.2 secs

     total energy              =    -724.67384453 Ry
     Harris-Foulkes estimate   =    -724.66289196 Ry
     estimated scf accuracy    <       0.02929790 Ry

     total magnetization       =     2.00 Bohr mag/cell
     absolute magnetization    =     2.14 Bohr mag/cell

     iteration #  5     ecut=    70.00 Ry     beta=0.50
     Davidson diagonalization with overlap
     ethr =  1.15E-05,  avg # of iterations = 10.5

     total cpu time spent up to now is       18.4 secs

     total energy              =    -724.68245944 Ry
     Harris-Foulkes estimate   =    -724.68208058 Ry
     estimated scf accuracy    <       0.00645268 Ry

     total magnetization       =     2.00 Bohr mag/cell
     absolute magnetization    =     2.15 Bohr mag/cell

     iteration #  6     ecut=    70.00 Ry     beta=0.50
     Davidson diagonalization with overlap
     c_bands:  1 eigenvalues not converged
     ethr =  2.54E-06,  avg # of iterations =  9.1

     total cpu time spent up to now is       23.3 secs

     total energy              =    -724.68375038 Ry
     Harris-Foulkes estimate   =    -724.68383145 Ry
     estimated scf accuracy    <       0.00066767 Ry

     total magnetization       =     2.00 Bohr mag/cell
     absolute magnetization    =     2.16 Bohr mag/cell

     iteration #  7     ecut=    70.00 Ry     beta=0.50
     Davidson diagonalization with overlap
     ethr =  2.63E-07,  avg # of iterations =  3.3

     total cpu time spent up to now is       25.3 secs

     total energy              =    -724.68396444 Ry
     Harris-Foulkes estimate   =    -724.68393705 Ry
     estimated scf accuracy    <       0.00008872 Ry

     total magnetization       =     2.00 Bohr mag/cell
     absolute magnetization    =     2.17 Bohr mag/cell

     iteration #  8     ecut=    70.00 Ry     beta=0.50
     Davidson diagonalization with overlap
     ethr =  3.49E-08,  avg # of iterations =  3.4

     total cpu time spent up to now is       27.5 secs

     total energy              =    -724.68401097 Ry
     Harris-Foulkes estimate   =    -724.68399297 Ry
     estimated scf accuracy    <       0.00001827 Ry

     total magnetization       =     2.00 Bohr mag/cell
     absolute magnetization    =     2.18 Bohr mag/cell

     iteration #  9     ecut=    70.00 Ry     beta=0.50
     Davidson diagonalization with overlap
     ethr =  7.19E-09,  avg # of iterations =  3.9

     total cpu time spent up to now is       29.6 secs

     total energy              =    -724.68402432 Ry
     Harris-Foulkes estimate   =    -724.68401504 Ry
     estimated scf accuracy    <       0.00000519 Ry

     total magnetization       =     2.00 Bohr mag/cell
     absolute magnetization    =     2.19 Bohr mag/cell

     iteration # 10     ecut=    70.00 Ry     beta=0.50
     Davidson diagonalization with overlap
     ethr =  2.04E-09,  avg # of iterations =  4.7

     total cpu time spent up to now is       32.4 secs

     total energy              =    -724.68402859 Ry
     Harris-Foulkes estimate   =    -724.68402754 Ry
     estimated scf accuracy    <       0.00000100 Ry

     total magnetization       =     2.00 Bohr mag/cell
     absolute magnetization    =     2.19 Bohr mag/cell

     iteration # 11     ecut=    70.00 Ry     beta=0.50
     Davidson diagonalization with overlap
     ethr =  3.95E-10,  avg # of iterations =  4.5
 
     Magnetic moment per site:
     atom:    1    charge:    1.8203    magn:    0.0067    constr:    0.0000
     atom:    2    charge:    1.8355    magn:    0.0079    constr:    0.0000
     atom:    3    charge:    1.8249    magn:   -0.0013    constr:    0.0000
     atom:    4    charge:    1.8355    magn:    0.0079    constr:    0.0000
     atom:    5    charge:    1.8249    magn:   -0.0013    constr:    0.0000
     atom:    6    charge:    1.8144    magn:   -0.0000    constr:    0.0000
     atom:    7    charge:    1.8355    magn:    0.0079    constr:    0.0000
     atom:    8    charge:    1.8192    magn:   -0.0008    constr:    0.0000
     atom:    9    charge:    1.8009    magn:    0.0001    constr:    0.0000
     atom:   10    charge:    1.8127    magn:   -0.0014    constr:    0.0000
     atom:   11    charge:    1.8229    magn:   -0.0026    constr:    0.0000
     atom:   12    charge:    1.8127    magn:   -0.0014    constr:    0.0000
     atom:   13    charge:    1.8229    magn:   -0.0026    constr:    0.0000
     atom:   14    charge:    1.8189    magn:   -0.0015    constr:    0.0000
     atom:   15    charge:    1.8249    magn:   -0.0013    constr:    0.0000
     atom:   16    charge:    1.8265    magn:    0.0008    constr:    0.0000
     atom:   17    charge:    1.8229    magn:   -0.0026    constr:    0.0000
     atom:   18    charge:    1.8229    magn:   -0.0026    constr:    0.0000
     atom:   19    charge:    1.8265    magn:    0.0008    constr:    0.0000
     atom:   20    charge:    1.8192    magn:   -0.0008    constr:    0.0000
     atom:   21    charge:    1.8127    magn:   -0.0014    constr:    0.0000
     atom:   22    charge:    1.8127    magn:   -0.0014    constr:    0.0000
     atom:   23    charge:    1.8189    magn:   -0.0015    constr:    0.0000
     atom:   24    charge:    1.8009    magn:    0.0001    constr:    0.0000
     atom:   25    charge:    1.8229    magn:   -0.0026    constr:    0.0000
     atom:   26    charge:    1.8192    magn:   -0.0008    constr:    0.0000
     atom:   27    charge:    1.8127    magn:   -0.0014    constr:    0.0000
     atom:   28    charge:    1.8229    magn:   -0.0026    constr:    0.0000
     atom:   29    charge:    1.8265    magn:    0.0008    constr:    0.0000
     atom:   30    charge:    1.8009    magn:    0.0001    constr:    0.0000
     atom:   31    charge:    1.8127    magn:   -0.0014    constr:    0.0000
     atom:   32    charge:    1.8189    magn:    0.0060    constr:    0.0000
     atom:   33    charge:    1.8408    magn:    0.2002    constr:    0.0000
     atom:   34    charge:    1.8176    magn:    0.0165    constr:    0.0000
     atom:   35    charge:    1.8203    magn:    0.0067    constr:    0.0000
     atom:   36    charge:    1.8176    magn:    0.0165    constr:    0.0000
     atom:   37    charge:    1.8203    magn:    0.0067    constr:    0.0000
     atom:   38    charge:    1.8201    magn:    0.0051    constr:    0.0000
     atom:   39    charge:    1.8176    magn:    0.0165    constr:    0.0000
     atom:   40    charge:    1.8218    magn:    0.0040    constr:    0.0000
     atom:   41    charge:    1.8284    magn:    0.0095    constr:    0.0000
     atom:   42    charge:    1.8176    magn:    0.0173    constr:    0.0000
     atom:   43    charge:    1.8149    magn:    0.0046    constr:    0.0000
     atom:   44    charge:    1.8176    magn:    0.0173    constr:    0.0000
     atom:   45    charge:    1.8149    magn:    0.0046    constr:    0.0000
     atom:   46    charge:    1.8176    magn:    0.0173    constr:    0.0000
     atom:   47    charge:    1.8189    magn:    0.0060    constr:    0.0000
     atom:   48    charge:    1.8284    magn:    0.0095    constr:    0.0000
     atom:   49    charge:    1.8149    magn:    0.0046    constr:    0.0000
     atom:   50    charge:    1.8149    magn:    0.0046    constr:    0.0000
     atom:   51    charge:    1.8408    magn:    0.2002    constr:    0.0000
     atom:   52    charge:    1.8218    magn:    0.0040    constr:    0.0000
     atom:   53    charge:    1.8176    magn:    0.0173    constr:    0.0000
     atom:   54    charge:    1.8176    magn:    0.0173    constr:    0.0000
     atom:   55    charge:    1.8189    magn:    0.0060    constr:    0.0000
     atom:   56    charge:    1.8284    magn:    0.0095    constr:    0.0000
     atom:   57    charge:    1.8149    magn:    0.0046    constr:    0.0000
     atom:   58    charge:    1.8218    magn:    0.0040    constr:    0.0000
     atom:   59    charge:    1.8176    magn:    0.0173    constr:    0.0000
     atom:   60    charge:    1.8149    magn:    0.0046    constr:    0.0000
     atom:   61    charge:    1.8408    magn:    0.2002    constr:    0.0000
     atom:   62    charge:    1.8189    magn:   -0.0015    constr:    0.0000
     atom:   63    charge:    2.8881    magn:    0.1292    constr:    0.0000

     total cpu time spent up to now is       35.0 secs

     End of self-consistent calculation

 ------ SPIN UP ------------


          k = 0.0000 0.0000 0.0000 ( 24207 PWs)   bands (ev):

    -8.6569  -7.2608  -6.2846  -6.2846  -6.1481  -6.1481  -5.9067  -5.0420
    -4.1555  -4.1555  -4.1334  -4.1334  -4.0199  -4.0199  -3.9679  -3.9612
    -3.8551  -3.8551  -3.3753  -2.9891  -2.6765  -2.6765  -2.1089  -0.4213
    -0.4213  -0.3639  -0.3381  -0.1666   0.1424   0.1424   0.2615   0.2615
     0.3483   0.5757   0.7732   0.7732   0.9714   0.9714   1.0060   1.0086
     1.0086   1.0860   1.3277   1.3277   2.9913   3.7385   3.7385   3.9728
     4.1940   4.2121   4.2121   4.2170   4.2580   4.2580   4.4070   4.4070
     4.4479   4.4479   4.5891   4.6198   4.6198   4.6231   4.6617   4.7226
     4.7226   4.8539   4.9193   4.9193   5.0045   5.1922   5.1922   5.2335
     5.3186   5.3186   5.3684   5.4149   5.4149   5.9816   5.9816   5.9999
     6.5640   6.5640   6.7106   6.8898   6.9961   6.9961   7.4315   8.2269
     8.2269   8.3488   8.4418   8.4418   8.5984   8.5984   8.7572   8.7789
     8.7789   8.7804   8.8493   8.8493   8.8895   9.2288   9.2296   9.2296
     9.6331   9.6331   9.8564   9.8564   9.8609   9.8992   9.9337   9.9337
     9.9413   9.9476   9.9596   9.9596  10.0970  10.0970  10.2444  10.2444
    10.3167  10.5254  12.0752  12.3998  12.3998  13.4693  14.9538  14.9538
    17.2341  17.3152  17.3152  17.4875  17.5065  17.5065  17.8125  17.8683
    17.8683  17.9575  17.9575  18.3026  18.8521  18.8521  18.9128  20.5357
    20.7379  20.7379  20.8007  20.8685  20.8686  20.9553  20.9554  20.9856

     occupation numbers 
     1.0000   1.0000   1.0000   1.0000   1.0000   1.0000   1.0000   1.0000
     1.0000   1.0000   1.0000   1.0000   1.0000   1.0000   1.0000   1.0000
     1.0000   1.0000   1.0000   1.0000   1.0000   1.0000   1.0000   1.0000
     1.0000   1.0000   1.0000   1.0000   1.0000   1.0000   1.0000   1.0000
     1.0000   1.0000   1.0000   1.0000   1.0000   1.0000   1.0000   1.0000
     1.0000   1.0000   1.0000   1.0000   1.0000   1.0000   1.0000   1.0000
     1.0000   1.0000   1.0000   1.0000   1.0000   1.0000   1.0000   1.0000
     1.0000   1.0000   1.0000   1.0000   1.0000   1.0000   1.0000   1.0000
     1.0000   1.0000   1.0000   1.0000   1.0000   1.0000   1.0000   1.0000
     1.0000   1.0000   1.0000   1.0000   1.0000   1.0000   1.0000   1.0000
     1.0000   1.0000   1.0000   1.0000   1.0000   1.0000   1.0000   1.0000
     1.0000   1.0000   1.0000   1.0000   1.0000   1.0000   1.0000   1.0000
     1.0000   1.0000   1.0000   1.0000   1.0000   1.0000   1.0000   1.0000
     1.0000   1.0000   1.0000   1.0000   1.0000   1.0000   1.0000   1.0000
     1.0000   1.0000   1.0000   1.0000   1.0000   1.0000   1.0000   1.0000
     1.0000   1.0000   1.0000   1.0000   1.0000   1.0000   1.0000   1.0000
     0.0000   0.0000   0.0000   0.0000   0.0000   0.0000   0.0000   0.0000
     0.0000   0.0000   0.0000   0.0000   0.0000   0.0000   0.0000   0.0000
     0.0000   0.0000   0.0000   0.0000   0.0000   0.0000   0.0000   0.0000

          k = 0.0000 0.0000 0.3333 ( 24280 PWs)   bands (ev):

    -8.4566  -7.6477  -6.7650  -6.0420  -5.9096  -5.8288  -5.5212  -5.2930
    -5.1470  -5.0031  -4.5425  -4.1582  -3.8143  -3.8069  -3.6833  -3.4540
    -3.2034  -3.1485  -2.9327  -2.6224  -2.5034  -2.3633  -2.3340  -1.7997
    -0.8943  -0.6976  -0.5636  -0.3604   0.1234   0.1952   0.3618   0.4111
     0.4769   0.5545   0.5624   0.6617   0.7207   0.7362   0.9983   1.4546
     1.9560   2.0004   2.1695   2.1843   2.4072   2.4731   2.4739   2.7452
     2.9317   2.9915   3.1517   3.1811   3.8433   3.9151   4.0500   4.0684
     4.2918   4.3287   4.4777   4.5339   5.0091   5.0677   5.1092   5.2021
     5.2051   5.5552   5.5947   5.6993   5.7644   6.0286   6.0785   6.1588
     6.1970   6.3091   6.3693   6.4641   6.5099   6.5755   6.6140   6.7303
     6.7742   6.8858   6.9091   6.9331   7.1405   7.1485   7.1788   7.2753
     7.3693   7.4753   7.6621   7.7615   7.8150   8.0645   8.1125   8.2792
     8.3184   8.4500   8.6150   8.7040   8.7648   9.0516   9.1804   9.3316
     9.3604   9.6074   9.6387   9.7031   9.8131   9.9141   9.9321   9.9423
     9.9579  10.0510  10.0693  10.1218  10.2114  10.2563  10.2663  10.3516
    10.3853  11.0213  11.6658  11.6965  11.9311  13.1278  14.6379  14.7983
    17.1511  17.2926  17.9402  18.2640  18.3292  18.4849  18.5003  18.5870
    18.8090  18.8252  18.9601  19.0619  19.1756  19.7924  19.8398  20.4157
    20.6321  20.6514  20.7739  20.7913  20.8205  20.8497  20.9010  20.9333

     occupation numbers 
     1.0000   1.0000   1.0000   1.0000   1.0000   1.0000   1.0000   1.0000
     1.0000   1.0000   1.0000   1.0000   1.0000   1.0000   1.0000   1.0000
     1.0000   1.0000   1.0000   1.0000   1.0000   1.0000   1.0000   1.0000
     1.0000   1.0000   1.0000   1.0000   1.0000   1.0000   1.0000   1.0000
     1.0000   1.0000   1.0000   1.0000   1.0000   1.0000   1.0000   1.0000
     1.0000   1.0000   1.0000   1.0000   1.0000   1.0000   1.0000   1.0000
     1.0000   1.0000   1.0000   1.0000   1.0000   1.0000   1.0000   1.0000
     1.0000   1.0000   1.0000   1.0000   1.0000   1.0000   1.0000   1.0000
     1.0000   1.0000   1.0000   1.0000   1.0000   1.0000   1.0000   1.0000
     1.0000   1.0000   1.0000   1.0000   1.0000   1.0000   1.0000   1.0000
     1.0000   1.0000   1.0000   1.0000   1.0000   1.0000   1.0000   1.0000
     1.0000   1.0000   1.0000   1.0000   1.0000   1.0000   1.0000   1.0000
     1.0000   1.0000   1.0000   1.0000   1.0000   1.0000   1.0000   1.0000
     1.0000   1.0000   1.0000   1.0000   1.0000   1.0000   1.0000   1.0000
     1.0000   1.0000   1.0000   1.0000   1.0000   1.0000   1.0000   1.0000
     1.0000   1.0000   1.0000   1.0000   1.0000   1.0000   1.0000   1.0000
     0.0000   0.0000   0.0000   0.0000   0.0000   0.0000   0.0000   0.0000
     0.0000   0.0000   0.0000   0.0000   0.0000   0.0000   0.0000   0.0000
     0.0000   0.0000   0.0000   0.0000   0.0000   0.0000   0.0000   0.0000

          k = 0.0000 0.3333 0.3333 ( 24236 PWs)   bands (ev):

    -8.2839  -7.5005  -7.2212  -6.6284  -6.0232  -5.6716  -5.3766  -5.0095
    -4.9805  -4.8615  -4.5150  -4.2497  -4.2197  -3.9354  -3.5707  -3.5257
    -2.8264  -2.3847  -2.3474  -2.3141  -2.1929  -2.1901  -2.0421  -1.8866
    -1.4781  -1.3315  -1.1018  -0.9147  -0.5628  -0.0737   0.0498   0.1341
     0.1666   0.4621   0.6692   1.1752   1.1889   1.3270   1.3620   1.3916
     1.4253   1.4702   1.9429   2.0517   2.1184   2.3828   2.7140   2.8090
     2.9566   3.4702   3.6310   3.6372   3.7590   3.8150   3.9600   4.0419
     4.1257   4.5290   4.6330   4.7855   5.0002   5.0444   5.1396   5.2932
     5.3072   5.5795   5.6252   5.6746   5.7321   5.9033   5.9985   6.0661
     6.1486   6.2377   6.2908   6.4706   6.5362   6.5903   6.6563   6.8325
     6.9262   6.9544   7.0022   7.0636   7.2193   7.2664   7.4775   7.6615
     7.9233   7.9331   8.0540   8.0607   8.1213   8.2340   8.2691   8.3071
     8.3680   8.4134   8.5210   8.6425   8.6698   8.7083   8.8397   8.8892
     9.0987   9.1780   9.2369   9.3060   9.4638   9.4663   9.5436   9.6482
     9.7153   9.7749   9.9098  10.0390  10.0662  10.1468  10.3658  10.6464
    10.9770  11.2015  11.5533  11.5593  12.2078  12.8950  14.5592  14.8807
    18.0170  18.1672  18.1963  18.2988  18.3495  18.7923  18.8539  18.9672
    19.1632  19.2029  19.4345  19.4810  19.6819  19.8022  19.9573  19.9909
    20.1761  20.4130  20.4687  20.4929  20.5538  20.5833  20.6105  20.6281

     occupation numbers 
     1.0000   1.0000   1.0000   1.0000   1.0000   1.0000   1.0000   1.0000
     1.0000   1.0000   1.0000   1.0000   1.0000   1.0000   1.0000   1.0000
     1.0000   1.0000   1.0000   1.0000   1.0000   1.0000   1.0000   1.0000
     1.0000   1.0000   1.0000   1.0000   1.0000   1.0000   1.0000   1.0000
     1.0000   1.0000   1.0000   1.0000   1.0000   1.0000   1.0000   1.0000
     1.0000   1.0000   1.0000   1.0000   1.0000   1.0000   1.0000   1.0000
     1.0000   1.0000   1.0000   1.0000   1.0000   1.0000   1.0000   1.0000
     1.0000   1.0000   1.0000   1.0000   1.0000   1.0000   1.0000   1.0000
     1.0000   1.0000   1.0000   1.0000   1.0000   1.0000   1.0000   1.0000
     1.0000   1.0000   1.0000   1.0000   1.0000   1.0000   1.0000   1.0000
     1.0000   1.0000   1.0000   1.0000   1.0000   1.0000   1.0000   1.0000
     1.0000   1.0000   1.0000   1.0000   1.0000   1.0000   1.0000   1.0000
     1.0000   1.0000   1.0000   1.0000   1.0000   1.0000   1.0000   1.0000
     1.0000   1.0000   1.0000   1.0000   1.0000   1.0000   1.0000   1.0000
     1.0000   1.0000   1.0000   1.0000   1.0000   1.0000   1.0000   1.0000
     1.0000   1.0000   1.0000   1.0000   1.0000   1.0000   1.0000   1.0000
     0.0000   0.0000   0.0000   0.0000   0.0000   0.0000   0.0000   0.0000
     0.0000   0.0000   0.0000   0.0000   0.0000   0.0000   0.0000   0.0000
     0.0000   0.0000   0.0000   0.0000   0.0000   0.0000   0.0000   0.0000

          k = 0.3333 0.3333 0.3333 ( 24303 PWs)   bands (ev):

    -8.1421  -7.3266  -6.9743  -6.9743  -6.3535  -6.2118  -6.2118  -5.4751
    -4.3000  -4.0290  -4.0290  -3.5865  -3.3883  -3.3883  -3.3620  -3.3620
    -3.2648  -2.9111  -2.6633  -2.6633  -1.9554  -1.9350  -1.9350  -1.5460
    -1.4619  -1.4619  -1.3914  -1.3914  -1.2951  -1.2085  -1.2085   0.0357
     0.8390   0.8390   0.9337   0.9677   0.9677   1.2639   1.8214   1.8214
     1.8686   1.8861   1.9863   1.9863   2.5536   2.5536   2.5874   2.7276
     2.7416   2.7416   3.1286   3.1286   3.5226   4.0570   4.2949   4.2949
     4.7837   4.8620   4.8620   4.9765   5.0861   5.0861   5.1337   5.2938
     5.2938   5.3871   5.4863   5.4863   5.5306   5.5306   5.5752   6.3337
     6.6491   6.6491   6.9637   6.9745   7.0162   7.0162   7.0985   7.0985
     7.2031   7.2031   7.2458   7.2546   7.2546   7.2630   7.3703   7.3703
     7.3996   7.4744   7.7243   7.7243   7.9077   7.9077   7.9606   8.0203
     8.1930   8.1930   8.2884   8.2884   8.3138   8.4598   8.4598   8.4612
     8.6834   8.6834   8.7368   9.0867   9.0936   9.5278   9.5278   9.7669
     9.7669  10.4631  10.4778  10.4778  10.5366  10.9488  10.9488  11.0758
    11.2720  11.2720  11.3281  11.6488  11.6488  12.7852  14.8600  14.8600
    18.0471  18.2184  18.2184  18.4542  18.6271  18.6271  19.2088  19.3600
    19.3600  19.5475  19.5475  19.5821  19.6234  19.6234  19.6739  19.7395
    19.7395  19.8598  19.9118  19.9118  19.9922  19.9923  20.0333  20.1704

     occupation numbers 
     1.0000   1.0000   1.0000   1.0000   1.0000   1.0000   1.0000   1.0000
     1.0000   1.0000   1.0000   1.0000   1.0000   1.0000   1.0000   1.0000
     1.0000   1.0000   1.0000   1.0000   1.0000   1.0000   1.0000   1.0000
     1.0000   1.0000   1.0000   1.0000   1.0000   1.0000   1.0000   1.0000
     1.0000   1.0000   1.0000   1.0000   1.0000   1.0000   1.0000   1.0000
     1.0000   1.0000   1.0000   1.0000   1.0000   1.0000   1.0000   1.0000
     1.0000   1.0000   1.0000   1.0000   1.0000   1.0000   1.0000   1.0000
     1.0000   1.0000   1.0000   1.0000   1.0000   1.0000   1.0000   1.0000
     1.0000   1.0000   1.0000   1.0000   1.0000   1.0000   1.0000   1.0000
     1.0000   1.0000   1.0000   1.0000   1.0000   1.0000   1.0000   1.0000
     1.0000   1.0000   1.0000   1.0000   1.0000   1.0000   1.0000   1.0000
     1.0000   1.0000   1.0000   1.0000   1.0000   1.0000   1.0000   1.0000
     1.0000   1.0000   1.0000   1.0000   1.0000   1.0000   1.0000   1.0000
     1.0000   1.0000   1.0000   1.0000   1.0000   1.0000   1.0000   1.0000
     1.0000   1.0000   1.0000   1.0000   1.0000   1.0000   1.0000   1.0000
     1.0000   1.0000   1.0000   1.0000   1.0000   1.0000   1.0000   1.0000
     0.0000   0.0000   0.0000   0.0000   0.0000   0.0000   0.0000   0.0000
     0.0000   0.0000   0.0000   0.0000   0.0000   0.0000   0.0000   0.0000
     0.0000   0.0000   0.0000   0.0000   0.0000   0.0000   0.0000   0.0000

          k =-0.3333 0.0000 0.3333 ( 24236 PWs)   bands (ev):

    -8.2715  -7.5987  -7.1019  -6.6190  -6.0757  -5.6790  -5.3957  -5.0498
    -4.9291  -4.7486  -4.5374  -4.3214  -4.2263  -4.0490  -3.5992  -3.3357
    -2.8085  -2.4382  -2.3796  -2.2782  -2.2089  -2.1541  -2.0957  -1.6761
    -1.6271  -1.3192  -1.1152  -1.0072  -0.5903  -0.0352   0.0560   0.1073
     0.2823   0.4921   0.8825   1.0171   1.1681   1.2055   1.2384   1.3800
     1.4888   1.5827   1.8480   1.8757   2.1278   2.5825   2.6474   2.8670
     2.9564   3.4493   3.6194   3.7026   3.7496   3.9092   4.0049   4.1258
     4.1653   4.3800   4.5421   4.7818   4.9527   4.9803   5.1656   5.2449
     5.4040   5.5490   5.6211   5.6886   5.7860   5.9895   6.0706   6.1252
     6.1728   6.2324   6.2776   6.3936   6.4514   6.6154   6.6295   6.7897
     6.8823   6.9610   7.0191   7.0928   7.2223   7.3613   7.4823   7.6408
     7.8170   7.8620   7.9432   8.0763   8.1723   8.2081   8.2719   8.2766
     8.3616   8.4350   8.5484   8.5812   8.7406   8.7565   8.8980   8.9585
     9.0661   9.1283   9.2238   9.3195   9.4249   9.4856   9.5207   9.6643
     9.7186   9.7592   9.9483  10.0367  10.0781  10.1002  10.4997  10.7296
    10.8871  11.1123  11.4472  11.5731  12.1860  13.2004  14.4815  14.7644
    18.0063  18.1787  18.2538  18.3051  18.3500  18.7879  18.9174  19.0873
    19.0990  19.2619  19.3219  19.4762  19.6869  19.8206  19.8640  20.0000
    20.2221  20.3303  20.3976  20.5051  20.5348  20.5825  20.6380  20.6790

     occupation numbers 
     1.0000   1.0000   1.0000   1.0000   1.0000   1.0000   1.0000   1.0000
     1.0000   1.0000   1.0000   1.0000   1.0000   1.0000   1.0000   1.0000
     1.0000   1.0000   1.0000   1.0000   1.0000   1.0000   1.0000   1.0000
     1.0000   1.0000   1.0000   1.0000   1.0000   1.0000   1.0000   1.0000
     1.0000   1.0000   1.0000   1.0000   1.0000   1.0000   1.0000   1.0000
     1.0000   1.0000   1.0000   1.0000   1.0000   1.0000   1.0000   1.0000
     1.0000   1.0000   1.0000   1.0000   1.0000   1.0000   1.0000   1.0000
     1.0000   1.0000   1.0000   1.0000   1.0000   1.0000   1.0000   1.0000
     1.0000   1.0000   1.0000   1.0000   1.0000   1.0000   1.0000   1.0000
     1.0000   1.0000   1.0000   1.0000   1.0000   1.0000   1.0000   1.0000
     1.0000   1.0000   1.0000   1.0000   1.0000   1.0000   1.0000   1.0000
     1.0000   1.0000   1.0000   1.0000   1.0000   1.0000   1.0000   1.0000
     1.0000   1.0000   1.0000   1.0000   1.0000   1.0000   1.0000   1.0000
     1.0000   1.0000   1.0000   1.0000   1.0000   1.0000   1.0000   1.0000
     1.0000   1.0000   1.0000   1.0000   1.0000   1.0000   1.0000   1.0000
     1.0000   1.0000   1.0000   1.0000   1.0000   1.0000   1.0000   1.0000
     0.0000   0.0000   0.0000   0.0000   0.0000   0.0000   0.0000   0.0000
     0.0000   0.0000   0.0000   0.0000   0.0000   0.0000   0.0000   0.0000
     0.0000   0.0000   0.0000   0.0000   0.0000   0.0000   0.0000   0.0000

          k = 0.3333-0.3333 0.3333 ( 24303 PWs)   bands (ev):

    -8.1223  -7.4452  -6.9749  -6.8287  -6.4980  -6.2100  -5.9921  -5.5241
    -4.6104  -4.0335  -3.9473  -3.7201  -3.4298  -3.3723  -3.3297  -3.1885
    -3.0768  -2.8944  -2.6935  -2.4363  -2.1048  -1.9021  -1.8618  -1.7302
    -1.4978  -1.4816  -1.4063  -1.3523  -1.3465  -1.2499  -1.1457  -0.1122
     0.7115   0.8879   0.9453   0.9702   1.0516   1.4015   1.6884   1.7604
     1.8605   1.9234   2.0464   2.2309   2.5507   2.5873   2.6824   2.7118
     2.7332   2.7758   2.8994   3.1733   3.4744   3.9477   4.2093   4.3211
     4.7438   4.7438   4.8389   5.0000   5.0023   5.0687   5.1830   5.2547
     5.2770   5.4287   5.4399   5.5125   5.6531   5.7756   5.8340   6.4028
     6.5847   6.6937   6.9054   6.9167   6.9686   7.0305   7.0786   7.0879
     7.1612   7.1896   7.2390   7.2587   7.2830   7.3123   7.3443   7.3578
     7.3932   7.4387   7.7220   7.7404   7.8034   7.9241   7.9508   7.9566
     8.1305   8.1639   8.2768   8.2851   8.3824   8.3891   8.4146   8.5208
     8.6895   8.7417   8.9370   8.9877   9.0848   9.5049   9.5830   9.5996
     9.8813  10.3823  10.4242  10.5344  10.5391  10.8618  10.9263  11.1165
    11.2241  11.2471  11.3127  11.7028  11.7434  13.1728  14.5510  14.8476
    18.0654  18.2514  18.3177  18.5170  18.6501  18.7092  19.1329  19.3639
    19.4190  19.4862  19.5159  19.5517  19.5998  19.6237  19.6459  19.7241
    19.7407  19.7820  19.8987  19.9081  19.9911  19.9915  20.0380  20.1495

     occupation numbers 
     1.0000   1.0000   1.0000   1.0000   1.0000   1.0000   1.0000   1.0000
     1.0000   1.0000   1.0000   1.0000   1.0000   1.0000   1.0000   1.0000
     1.0000   1.0000   1.0000   1.0000   1.0000   1.0000   1.0000   1.0000
     1.0000   1.0000   1.0000   1.0000   1.0000   1.0000   1.0000   1.0000
     1.0000   1.0000   1.0000   1.0000   1.0000   1.0000   1.0000   1.0000
     1.0000   1.0000   1.0000   1.0000   1.0000   1.0000   1.0000   1.0000
     1.0000   1.0000   1.0000   1.0000   1.0000   1.0000   1.0000   1.0000
     1.0000   1.0000   1.0000   1.0000   1.0000   1.0000   1.0000   1.0000
     1.0000   1.0000   1.0000   1.0000   1.0000   1.0000   1.0000   1.0000
     1.0000   1.0000   1.0000   1.0000   1.0000   1.0000   1.0000   1.0000
     1.0000   1.0000   1.0000   1.0000   1.0000   1.0000   1.0000   1.0000
     1.0000   1.0000   1.0000   1.0000   1.0000   1.0000   1.0000   1.0000
     1.0000   1.0000   1.0000   1.0000   1.0000   1.0000   1.0000   1.0000
     1.0000   1.0000   1.0000   1.0000   1.0000   1.0000   1.0000   1.0000
     1.0000   1.0000   1.0000   1.0000   1.0000   1.0000   1.0000   1.0000
     1.0000   1.0000   1.0000   1.0000   1.0000   1.0000   1.0000   1.0000
     0.0000   0.0000   0.0000   0.0000   0.0000   0.0000   0.0000   0.0000
     0.0000   0.0000   0.0000   0.0000   0.0000   0.0000   0.0000   0.0000
     0.0000   0.0000   0.0000   0.0000   0.0000   0.0000   0.0000   0.0000

 ------ SPIN DOWN ----------


          k = 0.0000 0.0000 0.0000 ( 24207 PWs)   bands (ev):

    -8.6147  -7.1804  -6.2670  -6.2670  -6.1148  -6.1148  -5.8692  -4.9968
    -4.1371  -4.1371  -4.1179  -4.1179  -3.9756  -3.9756  -3.9483  -3.9451
    -3.8118  -3.8118  -3.3309  -2.9605  -2.6289  -2.6289  -1.9904  -0.4034
    -0.4034  -0.3431  -0.3008  -0.0958   0.1609   0.1609   0.2936   0.2936
     0.3698   0.6127   0.7885   0.7885   0.9970   0.9970   1.0247   1.0247
     1.0296   1.1029   1.4666   1.4666   3.1056   3.7741   3.7741   4.0064
     4.2338   4.2345   4.2353   4.2353   4.2829   4.2829   4.4361   4.4361
     4.4830   4.4830   4.6056   4.6385   4.6385   4.6522   4.6757   4.7570
     4.7570   4.8781   4.9467   4.9467   5.0907   5.2258   5.2258   5.2666
     5.3302   5.3302   5.3776   5.4605   5.4605   6.0338   6.0338   6.0555
     6.5932   6.5932   6.7372   6.9660   7.0727   7.0727   7.6112   8.2669
     8.2669   8.3883   8.4705   8.4705   8.6311   8.6311   8.7945   8.7945
     8.8004   8.8270   8.8922   8.8922   8.9059   9.2602   9.2602   9.2639
     9.6653   9.6653   9.8697   9.8730   9.8730   9.9133   9.9585   9.9585
     9.9655   9.9730   9.9831   9.9831  10.1311  10.1311  10.2950  10.2950
    10.3642  11.0377  12.4481  12.5137  12.5137  14.1259  16.0501  16.0501
    17.2818  17.3343  17.3343  17.5113  17.5520  17.5520  17.8488  17.8912
    17.8912  17.9902  17.9902  18.4063  18.9300  18.9300  18.9613  20.6051
    20.7521  20.7521  20.8122  20.8912  20.8912  20.9759  20.9760  21.0069

     occupation numbers 
     1.0000   1.0000   1.0000   1.0000   1.0000   1.0000   1.0000   1.0000
     1.0000   1.0000   1.0000   1.0000   1.0000   1.0000   1.0000   1.0000
     1.0000   1.0000   1.0000   1.0000   1.0000   1.0000   1.0000   1.0000
     1.0000   1.0000   1.0000   1.0000   1.0000   1.0000   1.0000   1.0000
     1.0000   1.0000   1.0000   1.0000   1.0000   1.0000   1.0000   1.0000
     1.0000   1.0000   1.0000   1.0000   1.0000   1.0000   1.0000   1.0000
     1.0000   1.0000   1.0000   1.0000   1.0000   1.0000   1.0000   1.0000
     1.0000   1.0000   1.0000   1.0000   1.0000   1.0000   1.0000   1.0000
     1.0000   1.0000   1.0000   1.0000   1.0000   1.0000   1.0000   1.0000
     1.0000   1.0000   1.0000   1.0000   1.0000   1.0000   1.0000   1.0000
     1.0000   1.0000   1.0000   1.0000   1.0000   1.0000   1.0000   1.0000
     1.0000   1.0000   1.0000   1.0000   1.0000   1.0000   1.0000   1.0000
     1.0000   1.0000   1.0000   1.0000   1.0000   1.0000   1.0000   1.0000
     1.0000   1.0000   1.0000   1.0000   1.0000   1.0000   1.0000   1.0000
     1.0000   1.0000   1.0000   1.0000   1.0000   1.0000   1.0000   1.0000
     1.0000   1.0000   1.0000   1.0000   1.0000   0.0000   1.0000   0.0000
     0.0000   0.0000   0.0000   0.0000   0.0000   0.0000   0.0000   0.0000
     0.0000   0.0000   0.0000   0.0000   0.0000   0.0000   0.0000   0.0000
     0.0000   0.0000   0.0000   0.0000   0.0000   0.0000   0.0000   0.0000

          k = 0.0000 0.0000 0.3333 ( 24280 PWs)   bands (ev):

    -8.4096  -7.6041  -6.6992  -6.0244  -5.8794  -5.8031  -5.4987  -5.2752
    -5.1052  -4.9547  -4.5075  -4.1320  -3.7890  -3.7704  -3.6549  -3.4270
    -3.1651  -3.1067  -2.8935  -2.5937  -2.4845  -2.3204  -2.2875  -1.7192
    -0.8422  -0.6782  -0.5278  -0.3028   0.1646   0.2139   0.3847   0.4305
     0.5027   0.5873   0.5896   0.6880   0.7573   0.7651   1.0778   1.5138
     1.9920   2.0223   2.2068   2.2153   2.4534   2.5087   2.5134   2.7746
     2.9676   3.0130   3.2389   3.2448   3.8651   3.9537   4.0750   4.0871
     4.3119   4.3796   4.5182   4.5729   5.0478   5.1359   5.1539   5.2321
     5.2374   5.5906   5.6191   5.7346   5.8049   6.0631   6.1059   6.2052
     6.2240   6.3290   6.3989   6.4859   6.5514   6.6372   6.6418   6.7571
     6.8009   6.9231   6.9392   6.9739   7.1680   7.1755   7.2150   7.3099
     7.4187   7.5192   7.7460   7.8027   7.8647   8.0873   8.1436   8.3196
     8.3411   8.4729   8.6783   8.7602   8.8012   9.1190   9.2621   9.3776
     9.3986   9.6465   9.6678   9.7209   9.8478   9.9283   9.9596   9.9699
    10.0034  10.0822  10.1297  10.1404  10.2467  10.3003  10.3016  10.4310
    10.4354  11.3059  11.7596  11.8111  12.1193  13.9790  15.7416  15.9385
    17.1892  17.3232  17.9679  18.3004  18.3471  18.5075  18.5229  18.6296
    18.8455  18.8481  19.0009  19.1022  19.2617  19.8502  19.8865  20.4718
    20.6487  20.6879  20.7918  20.8082  20.8368  20.8783  20.9286  20.9547

     occupation numbers 
     1.0000   1.0000   1.0000   1.0000   1.0000   1.0000   1.0000   1.0000
     1.0000   1.0000   1.0000   1.0000   1.0000   1.0000   1.0000   1.0000
     1.0000   1.0000   1.0000   1.0000   1.0000   1.0000   1.0000   1.0000
     1.0000   1.0000   1.0000   1.0000   1.0000   1.0000   1.0000   1.0000
     1.0000   1.0000   1.0000   1.0000   1.0000   1.0000   1.0000   1.0000
     1.0000   1.0000   1.0000   1.0000   1.0000   1.0000   1.0000   1.0000
     1.0000   1.0000   1.0000   1.0000   1.0000   1.0000   1.0000   1.0000
     1.0000   1.0000   1.0000   1.0000   1.0000   1.0000   1.0000   1.0000
     1.0000   1.0000   1.0000   1.0000   1.0000   1.0000   1.0000   1.0000
     1.0000   1.0000   1.0000   1.0000   1.0000   1.0000   1.0000   1.0000
     1.0000   1.0000   1.0000   1.0000   1.0000   1.0000   1.0000   1.0000
     1.0000   1.0000   1.0000   1.0000   1.0000   1.0000   1.0000   1.0000
     1.0000   1.0000   1.0000   1.0000   1.0000   1.0000   1.0000   1.0000
     1.0000   1.0000   1.0000   1.0000   1.0000   1.0000   1.0000   1.0000
     1.0000   1.0000   1.0000   1.0000   1.0000   1.0000   1.0000   1.0000
     1.0000   1.0000   1.0000   1.0000   1.0000   0.0000   1.0000   0.0000
     0.0000   0.0000   0.0000   0.0000   0.0000   0.0000   0.0000   0.0000
     0.0000   0.0000   0.0000   0.0000   0.0000   0.0000   0.0000   0.0000
     0.0000   0.0000   0.0000   0.0000   0.0000   0.0000   0.0000   0.0000

          k = 0.0000 0.3333 0.3333 ( 24236 PWs)   bands (ev):

    -8.2298  -7.4534  -7.1954  -6.5877  -5.9856  -5.6427  -5.3404  -4.9795
    -4.9575  -4.8363  -4.4715  -4.2241  -4.1918  -3.8881  -3.5232  -3.4964
    -2.7879  -2.3634  -2.3191  -2.2933  -2.1625  -2.1532  -1.9967  -1.8438
    -1.4455  -1.3028  -1.0550  -0.8671  -0.4839  -0.0276   0.0699   0.1566
     0.2027   0.5035   0.7146   1.1991   1.2105   1.3469   1.3957   1.4234
     1.4633   1.5152   1.9713   2.1049   2.1813   2.4435   2.7383   2.8545
     3.0008   3.5269   3.6563   3.6642   3.7949   3.8347   4.0028   4.0665
     4.1756   4.5942   4.6646   4.8371   5.0361   5.0655   5.1726   5.3224
     5.3503   5.6214   5.6527   5.7228   5.7757   5.9322   6.0356   6.1049
     6.1613   6.2714   6.3210   6.5065   6.5568   6.6225   6.6900   6.8700
     6.9480   6.9784   7.0602   7.0931   7.2610   7.3085   7.5340   7.7183
     7.9646   8.0020   8.0875   8.0876   8.1432   8.2648   8.2983   8.3438
     8.4038   8.4403   8.5614   8.6700   8.7241   8.7348   8.8928   8.9217
     9.1243   9.2310   9.2658   9.3524   9.5007   9.5024   9.6062   9.6750
     9.7616   9.8165   9.9455  10.0934  10.0949  10.1779  10.4450  10.7845
    11.0798  11.2658  11.5862  11.8575  12.2774  13.8403  15.6812  15.9855
    18.0661  18.1954  18.2348  18.3219  18.3814  18.8179  18.8759  18.9998
    19.2011  19.2358  19.4690  19.5063  19.7086  19.8434  19.9871  20.0314
    20.2077  20.4388  20.4883  20.5173  20.5830  20.6144  20.6282  20.6567

     occupation numbers 
     1.0000   1.0000   1.0000   1.0000   1.0000   1.0000   1.0000   1.0000
     1.0000   1.0000   1.0000   1.0000   1.0000   1.0000   1.0000   1.0000
     1.0000   1.0000   1.0000   1.0000   1.0000   1.0000   1.0000   1.0000
     1.0000   1.0000   1.0000   1.0000   1.0000   1.0000   1.0000   1.0000
     1.0000   1.0000   1.0000   1.0000   1.0000   1.0000   1.0000   1.0000
     1.0000   1.0000   1.0000   1.0000   1.0000   1.0000   1.0000   1.0000
     1.0000   1.0000   1.0000   1.0000   1.0000   1.0000   1.0000   1.0000
     1.0000   1.0000   1.0000   1.0000   1.0000   1.0000   1.0000   1.0000
     1.0000   1.0000   1.0000   1.0000   1.0000   1.0000   1.0000   1.0000
     1.0000   1.0000   1.0000   1.0000   1.0000   1.0000   1.0000   1.0000
     1.0000   1.0000   1.0000   1.0000   1.0000   1.0000   1.0000   1.0000
     1.0000   1.0000   1.0000   1.0000   1.0000   1.0000   1.0000   1.0000
     1.0000   1.0000   1.0000   1.0000   1.0000   1.0000   1.0000   1.0000
     1.0000   1.0000   1.0000   1.0000   1.0000   1.0000   1.0000   1.0000
     1.0000   1.0000   1.0000   1.0000   1.0000   1.0000   1.0000   1.0000
     1.0000   1.0000   1.0000   1.0000   1.0000   0.0000   1.0000   0.0000
     0.0000   0.0000   0.0000   0.0000   0.0000   0.0000   0.0000   0.0000
     0.0000   0.0000   0.0000   0.0000   0.0000   0.0000   0.0000   0.0000
     0.0000   0.0000   0.0000   0.0000   0.0000   0.0000   0.0000   0.0000

          k = 0.3333 0.3333 0.3333 ( 24303 PWs)   bands (ev):

    -8.0791  -7.2819  -6.9495  -6.9495  -6.3175  -6.1835  -6.1835  -5.4258
    -4.2289  -4.0051  -4.0051  -3.5457  -3.3724  -3.3724  -3.3210  -3.3210
    -3.2456  -2.8872  -2.6190  -2.6190  -1.9305  -1.9151  -1.9151  -1.5225
    -1.4435  -1.4435  -1.3679  -1.3679  -1.2732  -1.1176  -1.1176   0.1649
     0.8623   0.8623   0.9948   0.9948   0.9983   1.3019   1.8480   1.8480
     1.9001   1.9214   2.0199   2.0199   2.5791   2.5791   2.6162   2.7449
     2.7692   2.7692   3.2132   3.2132   3.5616   4.1332   4.3216   4.3216
     4.8459   4.9051   4.9051   4.9930   5.1092   5.1092   5.1883   5.3246
     5.3246   5.4149   5.5144   5.5144   5.5626   5.5626   5.6308   6.4279
     6.6972   6.6972   6.9753   7.0190   7.0402   7.0402   7.1219   7.1219
     7.2230   7.2230   7.2725   7.2753   7.2795   7.2795   7.4022   7.4022
     7.4262   7.5355   7.7647   7.7647   7.9345   7.9345   7.9828   8.0400
     8.2261   8.2261   8.3142   8.3142   8.3338   8.4769   8.5108   8.5108
     8.7176   8.7176   8.8412   9.1326   9.1638   9.5782   9.5782   9.8441
     9.8441  10.5039  10.5039  10.5601  10.6111  11.0021  11.0021  11.2987
    11.2987  11.3519  11.5688  11.6893  11.6893  13.6892  16.0005  16.0005
    18.1083  18.2422  18.2422  18.4806  18.6571  18.6571  19.2422  19.3742
    19.3742  19.5709  19.5709  19.5962  19.6457  19.6457  19.6956  19.7575
    19.7575  19.8856  19.9379  19.9379  20.0312  20.0313  20.0475  20.2005

     occupation numbers 
     1.0000   1.0000   1.0000   1.0000   1.0000   1.0000   1.0000   1.0000
     1.0000   1.0000   1.0000   1.0000   1.0000   1.0000   1.0000   1.0000
     1.0000   1.0000   1.0000   1.0000   1.0000   1.0000   1.0000   1.0000
     1.0000   1.0000   1.0000   1.0000   1.0000   1.0000   1.0000   1.0000
     1.0000   1.0000   1.0000   1.0000   1.0000   1.0000   1.0000   1.0000
     1.0000   1.0000   1.0000   1.0000   1.0000   1.0000   1.0000   1.0000
     1.0000   1.0000   1.0000   1.0000   1.0000   1.0000   1.0000   1.0000
     1.0000   1.0000   1.0000   1.0000   1.0000   1.0000   1.0000   1.0000
     1.0000   1.0000   1.0000   1.0000   1.0000   1.0000   1.0000   1.0000
     1.0000   1.0000   1.0000   1.0000   1.0000   1.0000   1.0000   1.0000
     1.0000   1.0000   1.0000   1.0000   1.0000   1.0000   1.0000   1.0000
     1.0000   1.0000   1.0000   1.0000   1.0000   1.0000   1.0000   1.0000
     1.0000   1.0000   1.0000   1.0000   1.0000   1.0000   1.0000   1.0000
     1.0000   1.0000   1.0000   1.0000   1.0000   1.0000   1.0000   1.0000
     1.0000   1.0000   1.0000   1.0000   1.0000   1.0000   1.0000   1.0000
     1.0000   1.0000   1.0000   1.0000   1.0000   0.0000   1.0000   0.0000
     0.0000   0.0000   0.0000   0.0000   0.0000   0.0000   0.0000   0.0000
     0.0000   0.0000   0.0000   0.0000   0.0000   0.0000   0.0000   0.0000
     0.0000   0.0000   0.0000   0.0000   0.0000   0.0000   0.0000   0.0000

          k =-0.3333 0.0000 0.3333 ( 24236 PWs)   bands (ev):

    -8.2164  -7.5585  -7.0722  -6.5733  -6.0407  -5.6537  -5.3565  -5.0322
    -4.8915  -4.7124  -4.5147  -4.2859  -4.1915  -4.0159  -3.5576  -3.2975
    -2.7649  -2.4138  -2.3609  -2.2558  -2.1746  -2.1199  -2.0613  -1.6545
    -1.5473  -1.2865  -1.0814  -0.9525  -0.5257  -0.0176   0.0877   0.1374
     0.3251   0.5391   0.9489   1.0469   1.1915   1.2259   1.2711   1.4004
     1.5184   1.6277   1.8909   1.9095   2.1545   2.6490   2.6989   2.9083
     3.0047   3.4940   3.6593   3.7235   3.7791   3.9349   4.0442   4.1588
     4.2270   4.4350   4.5784   4.8336   4.9739   5.0127   5.1980   5.2797
     5.4428   5.5909   5.6473   5.7302   5.8318   6.0221   6.0869   6.1576
     6.2015   6.2624   6.3154   6.4252   6.4866   6.6461   6.6548   6.8098
     6.9057   6.9865   7.0547   7.1450   7.2744   7.4181   7.5403   7.6817
     7.9023   7.9155   7.9726   8.0925   8.2015   8.2311   8.2939   8.3099
     8.3977   8.4738   8.5865   8.6242   8.7709   8.7998   8.9292   8.9850
     9.1130   9.1620   9.2673   9.3641   9.4710   9.5311   9.5457   9.7064
     9.7562   9.8202   9.9785  10.0702  10.1131  10.1391  10.5484  10.9524
    10.9817  11.1931  11.5177  11.7424  12.3546  14.0730  15.5867  15.8820
    18.0449  18.2060  18.2823  18.3315  18.3808  18.8111  18.9414  19.1125
    19.1355  19.2892  19.3859  19.5087  19.7170  19.8637  19.8952  20.0483
    20.2547  20.3624  20.4300  20.5248  20.5554  20.6072  20.6604  20.7032

     occupation numbers 
     1.0000   1.0000   1.0000   1.0000   1.0000   1.0000   1.0000   1.0000
     1.0000   1.0000   1.0000   1.0000   1.0000   1.0000   1.0000   1.0000
     1.0000   1.0000   1.0000   1.0000   1.0000   1.0000   1.0000   1.0000
     1.0000   1.0000   1.0000   1.0000   1.0000   1.0000   1.0000   1.0000
     1.0000   1.0000   1.0000   1.0000   1.0000   1.0000   1.0000   1.0000
     1.0000   1.0000   1.0000   1.0000   1.0000   1.0000   1.0000   1.0000
     1.0000   1.0000   1.0000   1.0000   1.0000   1.0000   1.0000   1.0000
     1.0000   1.0000   1.0000   1.0000   1.0000   1.0000   1.0000   1.0000
     1.0000   1.0000   1.0000   1.0000   1.0000   1.0000   1.0000   1.0000
     1.0000   1.0000   1.0000   1.0000   1.0000   1.0000   1.0000   1.0000
     1.0000   1.0000   1.0000   1.0000   1.0000   1.0000   1.0000   1.0000
     1.0000   1.0000   1.0000   1.0000   1.0000   1.0000   1.0000   1.0000
     1.0000   1.0000   1.0000   1.0000   1.0000   1.0000   1.0000   1.0000
     1.0000   1.0000   1.0000   1.0000   1.0000   1.0000   1.0000   1.0000
     1.0000   1.0000   1.0000   1.0000   1.0000   1.0000   1.0000   1.0000
     1.0000   1.0000   1.0000   1.0000   1.0000   0.0000   1.0000   0.0000
     0.0000   0.0000   0.0000   0.0000   0.0000   0.0000   0.0000   0.0000
     0.0000   0.0000   0.0000   0.0000   0.0000   0.0000   0.0000   0.0000
     0.0000   0.0000   0.0000   0.0000   0.0000   0.0000   0.0000   0.0000

          k = 0.3333-0.3333 0.3333 ( 24303 PWs)   bands (ev):

    -8.0572  -7.4074  -6.9503  -6.8009  -6.4707  -6.1812  -5.9474  -5.4796
    -4.5486  -4.0118  -3.9246  -3.6810  -3.4085  -3.3461  -3.3126  -3.1550
    -3.0464  -2.8661  -2.6524  -2.3833  -2.0556  -1.8755  -1.8317  -1.7064
    -1.4802  -1.4659  -1.3826  -1.3299  -1.3213  -1.1818  -1.0613   0.0029
     0.7400   0.9125   0.9754   0.9943   1.0955   1.4492   1.7117   1.7962
     1.8825   1.9593   2.0768   2.2877   2.5918   2.6054   2.7058   2.7340
     2.7625   2.8274   2.9456   3.2630   3.5157   4.0074   4.2590   4.3502
     4.7682   4.7853   4.8909   5.0259   5.0323   5.0861   5.2287   5.2807
     5.3030   5.4553   5.4721   5.5460   5.7089   5.8295   5.8846   6.4830
     6.6141   6.7336   6.9318   6.9457   6.9836   7.0539   7.0933   7.1273
     7.1911   7.2132   7.2569   7.2891   7.3079   7.3512   7.3787   7.3873
     7.4220   7.4741   7.7655   7.7784   7.8455   7.9503   7.9765   7.9853
     8.1547   8.1901   8.2995   8.3203   8.4162   8.4246   8.4360   8.5694
     8.7261   8.7745   8.9948   9.0214   9.1985   9.5575   9.6386   9.6875
     9.9730  10.4082  10.5495  10.5603  10.6175  10.9685  10.9723  11.2213
    11.2487  11.3408  11.5020  11.7813  11.8126  14.0593  15.6615  15.9926
    18.0970  18.2736  18.3455  18.5489  18.6756  18.7574  19.1692  19.3874
    19.4342  19.5011  19.5334  19.5701  19.6398  19.6477  19.6751  19.7433
    19.7576  19.8087  19.9321  19.9337  20.0081  20.0117  20.0706  20.1829

     occupation numbers 
     1.0000   1.0000   1.0000   1.0000   1.0000   1.0000   1.0000   1.0000
     1.0000   1.0000   1.0000   1.0000   1.0000   1.0000   1.0000   1.0000
     1.0000   1.0000   1.0000   1.0000   1.0000   1.0000   1.0000   1.0000
     1.0000   1.0000   1.0000   1.0000   1.0000   1.0000   1.0000   1.0000
     1.0000   1.0000   1.0000   1.0000   1.0000   1.0000   1.0000   1.0000
     1.0000   1.0000   1.0000   1.0000   1.0000   1.0000   1.0000   1.0000
     1.0000   1.0000   1.0000   1.0000   1.0000   1.0000   1.0000   1.0000
     1.0000   1.0000   1.0000   1.0000   1.0000   1.0000   1.0000   1.0000
     1.0000   1.0000   1.0000   1.0000   1.0000   1.0000   1.0000   1.0000
     1.0000   1.0000   1.0000   1.0000   1.0000   1.0000   1.0000   1.0000
     1.0000   1.0000   1.0000   1.0000   1.0000   1.0000   1.0000   1.0000
     1.0000   1.0000   1.0000   1.0000   1.0000   1.0000   1.0000   1.0000
     1.0000   1.0000   1.0000   1.0000   1.0000   1.0000   1.0000   1.0000
     1.0000   1.0000   1.0000   1.0000   1.0000   1.0000   1.0000   1.0000
     1.0000   1.0000   1.0000   1.0000   1.0000   1.0000   1.0000   1.0000
     1.0000   1.0000   1.0000   1.0000   1.0000   0.0000   1.0000   0.0000
     0.0000   0.0000   0.0000   0.0000   0.0000   0.0000   0.0000   0.0000
     0.0000   0.0000   0.0000   0.0000   0.0000   0.0000   0.0000   0.0000
     0.0000   0.0000   0.0000   0.0000   0.0000   0.0000   0.0000   0.0000

     highest occupied, lowest unoccupied level (ev):    14.9538   13.6892

!    total energy              =    -724.68402928 Ry
     Harris-Foulkes estimate   =    -724.68402911 Ry
     estimated scf accuracy    <       0.00000013 Ry

     The total energy is the sum of the following terms:

     one-electron contribution =     233.14737066 Ry
     hartree contribution      =      69.08460807 Ry
     xc contribution           =    -226.39633382 Ry
     ewald contribution        =    -800.51967418 Ry

     total magnetization       =     2.00 Bohr mag/cell
     absolute magnetization    =     2.20 Bohr mag/cell

     convergence has been achieved in  11 iterations

     Writing output data file di.save
 
     init_run     :      1.31s CPU      1.70s WALL (       1 calls)
     electrons    :     30.92s CPU     31.39s WALL (       1 calls)

     Called by init_run:
     wfcinit      :      0.76s CPU      0.83s WALL (       1 calls)
     wfcinit:atom :      0.01s CPU      0.01s WALL (       2 calls)
     wfcinit:wfcr :      0.71s CPU      0.78s WALL (       2 calls)
     potinit      :      0.08s CPU      0.10s WALL (       1 calls)

     Called by electrons:
     c_bands      :     29.01s CPU     29.44s WALL (      11 calls)
     sum_band     :      1.28s CPU      1.30s WALL (      11 calls)
     v_of_rho     :      0.44s CPU      0.44s WALL (      12 calls)
     v_h          :      0.01s CPU      0.01s WALL (      12 calls)
     v_xc         :      0.42s CPU      0.43s WALL (      12 calls)
     mix_rho      :      0.09s CPU      0.09s WALL (      11 calls)

     Called by c_bands:
     init_us_2    :      0.20s CPU      0.21s WALL (      46 calls)
     cegterg      :     26.45s CPU     26.85s WALL (      22 calls)

     Called by sum_band:

     Called by *egterg:
     h_psi        :     10.26s CPU     10.39s WALL (     155 calls)
     g_psi        :      0.06s CPU      0.06s WALL (     131 calls)
     cdiaghg      :     11.50s CPU     11.55s WALL (     153 calls)
     cegterg:over :      2.07s CPU      2.07s WALL (     131 calls)
     cegterg:upda :      1.56s CPU      1.56s WALL (     131 calls)
     cegterg:last :      0.57s CPU      0.58s WALL (      22 calls)

     Called by h_psi:
     h_psi:pot    :     10.13s CPU     10.26s WALL (     155 calls)
     h_psi:calbec :      2.20s CPU      2.22s WALL (     155 calls)
     vloc_psi     :      5.65s CPU      5.74s WALL (     155 calls)
     add_vuspsi   :      2.28s CPU      2.30s WALL (     155 calls)

     General routines
     calbec       :      2.20s CPU      2.22s WALL (     155 calls)
     fft          :      0.14s CPU      0.35s WALL (     249 calls)
     fftw         :      5.99s CPU      6.01s WALL (   22608 calls)
 
     Parallel routines
     fft_scatter  :      1.80s CPU      1.76s WALL (   22857 calls)
 
     PWSCF        :    35.09s CPU        38.50s WALL

 
   This run was terminated on:  10:29:10  12May2020            

=------------------------------------------------------------------------------=
   JOB DONE.
=------------------------------------------------------------------------------=
