
     Program PWSCF v.6.1 (svn rev. 13369) starts on  1Jun2021 at 13:14:46 

     This program is part of the open-source Quantum ESPRESSO suite
     for quantum simulation of materials; please cite
         "P. Giannozzi et al., J. Phys.:Condens. Matter 21 395502 (2009);
          URL http://www.quantum-espresso.org", 
     in publications or presentations arising from this work. More details at
     http://www.quantum-espresso.org/quote

     Parallel version (MPI), running on    32 processors
     K-points division:     npool     =       2
     R & G space division:  proc/nbgrp/npool/nimage =      16
     Reading input from scf.in
Warning: card &IONS ignored
Warning: card / ignored

     Current dimensions of program PWSCF are:
     Max number of different atomic species (ntypx) = 10
     Max number of k-points (npk) =  40000
     Max angular momentum in pseudopotentials (lmaxx) =  3
     Message from routine setup:
     the system is metallic, specify occupations

     Subspace diagonalization in iterative solution of the eigenvalue problem:
     one sub-group per band group will be used
     scalapack distributed-memory algorithm (size of sub-group:  4*  4 procs)

 
     Parallelization info
     --------------------
     sticks:   dense  smooth     PW     G-vecs:    dense   smooth      PW
     Min         766     766    191                91100    91100   11396
     Max         767     767    193                91105    91105   11399
     Sum       12259   12259   3067              1457633  1457633  182351
 


     bravais-lattice index     =            0
     lattice parameter (alat)  =      28.4285  a.u.
     unit-cell volume          =   26452.5957 (a.u.)^3
     number of atoms/cell      =           71
     number of atomic types    =            2
     number of electrons       =       285.00 (up: 143.00, down: 142.00)
     number of Kohn-Sham states=          151
     kinetic-energy cutoff     =      55.0000  Ry
     charge density cutoff     =     220.0000  Ry
     convergence threshold     =      1.0E-08
     mixing beta               =       0.7000
     number of iterations used =            8  plain     mixing
     Exchange-correlation      = PBE ( 1  4  3  4 0 0)

     celldm(1)=  28.428530  celldm(2)=   0.000000  celldm(3)=   0.000000
     celldm(4)=   0.000000  celldm(5)=   0.000000  celldm(6)=   0.000000

     crystal axes: (cart. coord. in units of alat)
               a(1) = (   1.000000   0.000000   0.000000 )  
               a(2) = (  -0.500000   0.866025   0.000000 )  
               a(3) = (   0.000000   0.000000   1.329458 )  

     reciprocal axes: (cart. coord. in units 2 pi/alat)
               b(1) = (  1.000000  0.577350  0.000000 )  
               b(2) = (  0.000000  1.154701  0.000000 )  
               b(3) = (  0.000000  0.000000  0.752187 )  


     PseudoPot. # 1 for B  read from file:
     /export/data/share/tjsmart/Pseudo/B_ONCV_PBE-1.0.upf
     MD5 check sum: a9fd2462c33df863cd3ce8a66ea40380
     Pseudo is Norm-conserving, Zval =  3.0
     Generated using ONCVPSP code by D. R. Hamann
     Using radial grid of 1534 points,  4 beta functions with: 
                l(1) =   0
                l(2) =   0
                l(3) =   1
                l(4) =   1

     PseudoPot. # 2 for N  read from file:
     /export/data/share/tjsmart/Pseudo/N_ONCV_PBE-1.0.upf
     MD5 check sum: 09890da6b2972017450f7114a6086fad
     Pseudo is Norm-conserving, Zval =  5.0
     Generated using ONCVPSP code by D. R. Hamann
     Using radial grid of 1058 points,  4 beta functions with: 
                l(1) =   0
                l(2) =   0
                l(3) =   1
                l(4) =   1

     atomic species   valence    mass     pseudopotential
        B              3.00    10.81100     B ( 1.00)
        N              5.00    14.00670     N ( 1.00)

     Starting magnetic structure 
     atomic species   magnetization
        B            0.500
        N            0.500

      2 Sym. Ops. (no inversion) found



   Cartesian axes

     site n.     atom                  positions (alat units)
         1           B   tau(   1) = (   0.0847056   0.0481953   0.0000000  )
         2           B   tau(   2) = (   0.0017098   0.1915236   0.0000000  )
         3           B   tau(   3) = (  -0.0840512   0.3354299   0.0000000  )
         4           B   tau(   4) = (  -0.1697150   0.4797602   0.0000000  )
         5           B   tau(   5) = (  -0.2531415   0.6239823   0.0000000  )
         6           B   tau(   6) = (  -0.3348287   0.7684542   0.0000000  )
         7           B   tau(   7) = (   0.2505158   0.0502905   0.0000000  )
         8           B   tau(   8) = (   0.1708705   0.1983120   0.0000000  )
         9           B   tau(   9) = (   0.0817624   0.3374321   0.0000000  )
        10           B   tau(  10) = (  -0.0042353   0.4809035   0.0000000  )
        11           B   tau(  11) = (  -0.0868154   0.6252600   0.0000000  )
        12           B   tau(  12) = (  -0.1688524   0.7699824   0.0000000  )
        13           B   tau(  13) = (   0.4160651   0.0489387   0.0000000  )
        14           B   tau(  14) = (   0.3356196   0.1980892   0.0000000  )
        15           B   tau(  15) = (   0.2531626   0.3545326   0.0000000  )
        16           B   tau(  16) = (   0.1597675   0.4828914   0.0000000  )
        17           B   tau(  17) = (   0.0794938   0.6259292   0.0000000  )
        18           B   tau(  18) = (  -0.0022645   0.7698115   0.0000000  )
        19           B   tau(  19) = (   0.5841721   0.0456345   0.0000000  )
        20           B   tau(  20) = (   0.5049592   0.1891028   0.0000000  )
        21           N   tau(  21) = (   0.4226527   0.3311398   0.0000000  )
        22           B   tau(  22) = (   0.3176267   0.4662153   0.0000000  )
        23           B   tau(  23) = (   0.2467204   0.6231825   0.0000000  )
        24           B   tau(  24) = (   0.1655912   0.7678258   0.0000000  )
        25           B   tau(  25) = (   0.7515038   0.0444592   0.0000000  )
        26           B   tau(  26) = (   0.6702325   0.1881793   0.0000000  )
        27           B   tau(  27) = (   0.5867927   0.3308293   0.0000000  )
        28           B   tau(  28) = (   0.4943593   0.4730391   0.0000000  )
        29           B   tau(  29) = (   0.4117702   0.6155994   0.0000000  )
        30           B   tau(  30) = (   0.3330610   0.7654447   0.0000000  )
        31           B   tau(  31) = (   0.9178535   0.0452025   0.0000000  )
        32           B   tau(  32) = (   0.8353581   0.1897019   0.0000000  )
        33           B   tau(  33) = (   0.7506593   0.3339900   0.0000000  )
        34           B   tau(  34) = (   0.6637508   0.4779287   0.0000000  )
        35           B   tau(  35) = (   0.5798054   0.6206038   0.0000000  )
        36           B   tau(  36) = (   0.4987043   0.7652745   0.0000000  )
        37           N   tau(  37) = (   0.0009710   0.0949281   0.0000000  )
        38           N   tau(  38) = (  -0.0821260   0.2389480   0.0000000  )
        39           N   tau(  39) = (  -0.1675133   0.3832947   0.0000000  )
        40           N   tau(  40) = (  -0.2534530   0.5274028   0.0000000  )
        41           N   tau(  41) = (  -0.3367503   0.6711300   0.0000000  )
        42           N   tau(  42) = (  -0.4177308   0.8163827   0.0000000  )
        43           N   tau(  43) = (   0.1683370   0.0996465   0.0000000  )
        44           N   tau(  44) = (   0.0846681   0.2414344   0.0000000  )
        45           N   tau(  45) = (  -0.0021947   0.3846638   0.0000000  )
        46           N   tau(  46) = (  -0.0872594   0.5288875   0.0000000  )
        47           N   tau(  47) = (  -0.1699945   0.6733038   0.0000000  )
        48           N   tau(  48) = (  -0.2515235   0.8187534   0.0000000  )
        49           N   tau(  49) = (   0.3340685   0.1001011   0.0000000  )
        50           N   tau(  50) = (   0.2554205   0.2521573   0.0000000  )
        51           N   tau(  51) = (   0.1628205   0.3874718   0.0000000  )
        52           N   tau(  52) = (   0.0776946   0.5302535   0.0000000  )
        53           N   tau(  53) = (  -0.0035780   0.6738442   0.0000000  )
        54           N   tau(  54) = (  -0.0853522   0.8185254   0.0000000  )
        55           N   tau(  55) = (   0.5011563   0.0940973   0.0000000  )
        56           N   tau(  56) = (   0.4241671   0.2402261   0.0000000  )
        57           N   tau(  57) = (   0.2439286   0.5279976   0.0000000  )
        58           N   tau(  58) = (   0.1638549   0.6722667   0.0000000  )
        59           N   tau(  59) = (   0.0823640   0.8161575   0.0000000  )
        60           N   tau(  60) = (   0.6684118   0.0925191   0.0000000  )
        61           N   tau(  61) = (   0.5876601   0.2358113   0.0000000  )
        62           N   tau(  62) = (   0.5021439   0.3752773   0.0000000  )
        63           N   tau(  63) = (   0.4074699   0.5155106   0.0000000  )
        64           N   tau(  64) = (   0.3312860   0.6686757   0.0000000  )
        65           N   tau(  65) = (   0.2501428   0.8144046   0.0000000  )
        66           N   tau(  66) = (   0.8347128   0.0932417   0.0000000  )
        67           N   tau(  67) = (   0.7521724   0.2376102   0.0000000  )
        68           N   tau(  68) = (   0.6671593   0.3816332   0.0000000  )
        69           N   tau(  69) = (   0.5784337   0.5233296   0.0000000  )
        70           N   tau(  70) = (   0.4959735   0.6671105   0.0000000  )
        71           N   tau(  71) = (   0.4163197   0.8143710   0.0000000  )

     number of k points=     1
                       cart. coord. in units 2pi/alat
        k(    1) = (   0.0000000   0.0000000   0.0000000), wk =   1.0000000

     Dense  grid:  1457633 G-vectors     FFT dimensions: ( 135, 135, 180)

     Estimated max dynamical RAM per process >     320.92MB

     Estimated total allocated dynamical RAM >   10269.45MB
     Generating pointlists ...
     new r_m :   0.0391 (alat units)  1.1112 (a.u.) for type    1
     new r_m :   0.0375 (alat units)  1.0662 (a.u.) for type    2

     Initial potential from superposition of free atoms
     Check: negative starting charge=(component1):   -0.003141
     Check: negative starting charge=(component2):   -0.001047

     starting charge  284.99101, renormalised to  285.00000

     negative rho (up, down):  3.141E-03 1.047E-03
     Starting wfc are  284 randomized atomic wfcs

     total cpu time spent up to now is        8.4 secs

     per-process dynamical memory:   237.9 Mb

     Self-consistent Calculation

     iteration #  1     ecut=    55.00 Ry     beta=0.70
     Davidson diagonalization with overlap
     ethr =  1.00E-02,  avg # of iterations =  2.0

     negative rho (up, down):  5.144E-04 1.064E-04

     total cpu time spent up to now is       17.8 secs

     total energy              =    -915.14687056 Ry
     Harris-Foulkes estimate   =    -914.97516602 Ry
     estimated scf accuracy    <      16.82491270 Ry

     total magnetization       =     1.00 Bohr mag/cell
     absolute magnetization    =    10.81 Bohr mag/cell

     iteration #  2     ecut=    55.00 Ry     beta=0.70
     Davidson diagonalization with overlap
     ethr =  5.90E-03,  avg # of iterations =  3.0

     negative rho (up, down):  2.213E-04 2.575E-05

     total cpu time spent up to now is       27.8 secs

     total energy              =    -918.66280716 Ry
     Harris-Foulkes estimate   =    -921.72026742 Ry
     estimated scf accuracy    <       7.14191516 Ry

     total magnetization       =     1.00 Bohr mag/cell
     absolute magnetization    =     4.85 Bohr mag/cell

     iteration #  3     ecut=    55.00 Ry     beta=0.70
     Davidson diagonalization with overlap
     ethr =  2.51E-03,  avg # of iterations =  3.0

     negative rho (up, down):  2.934E-07 0.000E+00

     total cpu time spent up to now is       37.5 secs

     total energy              =    -920.44931223 Ry
     Harris-Foulkes estimate   =    -920.32809933 Ry
     estimated scf accuracy    <       0.40146861 Ry

     total magnetization       =     1.00 Bohr mag/cell
     absolute magnetization    =     4.24 Bohr mag/cell

     iteration #  4     ecut=    55.00 Ry     beta=0.70
     Davidson diagonalization with overlap
     ethr =  1.41E-04,  avg # of iterations =  9.0

     total cpu time spent up to now is       49.0 secs

     total energy              =    -920.55001838 Ry
     Harris-Foulkes estimate   =    -920.68452943 Ry
     estimated scf accuracy    <       0.32828112 Ry

     total magnetization       =     1.00 Bohr mag/cell
     absolute magnetization    =     2.56 Bohr mag/cell

     iteration #  5     ecut=    55.00 Ry     beta=0.70
     Davidson diagonalization with overlap
     ethr =  1.15E-04,  avg # of iterations =  4.0

     total cpu time spent up to now is       57.1 secs

     total energy              =    -920.60220290 Ry
     Harris-Foulkes estimate   =    -920.60781018 Ry
     estimated scf accuracy    <       0.01861094 Ry

     total magnetization       =     1.00 Bohr mag/cell
     absolute magnetization    =     2.14 Bohr mag/cell

     iteration #  6     ecut=    55.00 Ry     beta=0.70
     Davidson diagonalization with overlap
     ethr =  6.53E-06,  avg # of iterations = 15.5

     total cpu time spent up to now is       69.8 secs

     total energy              =    -920.60795063 Ry
     Harris-Foulkes estimate   =    -920.60716487 Ry
     estimated scf accuracy    <       0.00277399 Ry

     total magnetization       =     1.00 Bohr mag/cell
     absolute magnetization    =     1.73 Bohr mag/cell

     iteration #  7     ecut=    55.00 Ry     beta=0.70
     Davidson diagonalization with overlap
     ethr =  9.73E-07,  avg # of iterations =  4.0

     total cpu time spent up to now is       81.5 secs

     total energy              =    -920.60901338 Ry
     Harris-Foulkes estimate   =    -920.60971849 Ry
     estimated scf accuracy    <       0.00195895 Ry

     total magnetization       =     1.00 Bohr mag/cell
     absolute magnetization    =     1.30 Bohr mag/cell

     iteration #  8     ecut=    55.00 Ry     beta=0.70
     Davidson diagonalization with overlap
     ethr =  6.87E-07,  avg # of iterations =  2.5

     total cpu time spent up to now is       90.2 secs

     total energy              =    -920.60930314 Ry
     Harris-Foulkes estimate   =    -920.60927082 Ry
     estimated scf accuracy    <       0.00019924 Ry

     total magnetization       =     1.00 Bohr mag/cell
     absolute magnetization    =     1.25 Bohr mag/cell

     iteration #  9     ecut=    55.00 Ry     beta=0.70
     Davidson diagonalization with overlap
     ethr =  6.99E-08,  avg # of iterations =  3.5

     total cpu time spent up to now is      102.4 secs

     total energy              =    -920.60943805 Ry
     Harris-Foulkes estimate   =    -920.60939471 Ry
     estimated scf accuracy    <       0.00004548 Ry

     total magnetization       =     1.00 Bohr mag/cell
     absolute magnetization    =     1.18 Bohr mag/cell

     iteration # 10     ecut=    55.00 Ry     beta=0.70
     Davidson diagonalization with overlap
     ethr =  1.60E-08,  avg # of iterations =  4.0

     total cpu time spent up to now is      114.4 secs

     total energy              =    -920.60948499 Ry
     Harris-Foulkes estimate   =    -920.60948625 Ry
     estimated scf accuracy    <       0.00000830 Ry

     total magnetization       =     1.00 Bohr mag/cell
     absolute magnetization    =     1.12 Bohr mag/cell

     iteration # 11     ecut=    55.00 Ry     beta=0.70
     Davidson diagonalization with overlap
     ethr =  2.91E-09,  avg # of iterations =  3.0

     total cpu time spent up to now is      124.5 secs

     total energy              =    -920.60948775 Ry
     Harris-Foulkes estimate   =    -920.60948766 Ry
     estimated scf accuracy    <       0.00000099 Ry

     total magnetization       =     1.00 Bohr mag/cell
     absolute magnetization    =     1.11 Bohr mag/cell

     iteration # 12     ecut=    55.00 Ry     beta=0.70
     Davidson diagonalization with overlap
     ethr =  3.47E-10,  avg # of iterations =  3.0

     total cpu time spent up to now is      135.6 secs

     total energy              =    -920.60948827 Ry
     Harris-Foulkes estimate   =    -920.60948821 Ry
     estimated scf accuracy    <       0.00000016 Ry

     total magnetization       =     1.00 Bohr mag/cell
     absolute magnetization    =     1.12 Bohr mag/cell

     iteration # 13     ecut=    55.00 Ry     beta=0.70
     Davidson diagonalization with overlap
     ethr =  5.48E-11,  avg # of iterations =  3.5

     total cpu time spent up to now is      146.2 secs

     total energy              =    -920.60948837 Ry
     Harris-Foulkes estimate   =    -920.60948835 Ry
     estimated scf accuracy    <       0.00000002 Ry

     total magnetization       =     1.00 Bohr mag/cell
     absolute magnetization    =     1.12 Bohr mag/cell

     iteration # 14     ecut=    55.00 Ry     beta=0.70
     Davidson diagonalization with overlap
     ethr =  8.60E-12,  avg # of iterations =  3.5
 
     Magnetic moment per site:
     atom:    1    charge:    0.8211    magn:    0.0000    constr:    0.0000
     atom:    2    charge:    0.8353    magn:   -0.0000    constr:    0.0000
     atom:    3    charge:    0.8452    magn:    0.0000    constr:    0.0000
     atom:    4    charge:    0.8423    magn:    0.0006    constr:    0.0000
     atom:    5    charge:    0.8384    magn:    0.0001    constr:    0.0000
     atom:    6    charge:    0.8319    magn:    0.0000    constr:    0.0000
     atom:    7    charge:    0.8303    magn:    0.0008    constr:    0.0000
     atom:    8    charge:    0.8011    magn:   -0.0001    constr:    0.0000
     atom:    9    charge:    0.8510    magn:    0.0003    constr:    0.0000
     atom:   10    charge:    0.8498    magn:    0.0002    constr:    0.0000
     atom:   11    charge:    0.8427    magn:    0.0002    constr:    0.0000
     atom:   12    charge:    0.8398    magn:    0.0001    constr:    0.0000
     atom:   13    charge:    0.8382    magn:    0.0026    constr:    0.0000
     atom:   14    charge:    0.8193    magn:    0.0131    constr:    0.0000
     atom:   15    charge:    0.7404    magn:    0.0047    constr:    0.0000
     atom:   16    charge:    0.8688    magn:    0.0013    constr:    0.0000
     atom:   17    charge:    0.8495    magn:    0.0002    constr:    0.0000
     atom:   18    charge:    0.8427    magn:    0.0006    constr:    0.0000
     atom:   19    charge:    0.8470    magn:   -0.0001    constr:    0.0000
     atom:   20    charge:    0.8688    magn:    0.0056    constr:    0.0000
     atom:   21    charge:    2.4531    magn:    0.2870    constr:    0.0000
     atom:   22    charge:    0.7402    magn:    0.0047    constr:    0.0000
     atom:   23    charge:    0.8509    magn:    0.0003    constr:    0.0000
     atom:   24    charge:    0.8458    magn:    0.0000    constr:    0.0000
     atom:   25    charge:    0.8449    magn:    0.0002    constr:    0.0000
     atom:   26    charge:    0.8576    magn:    0.0015    constr:    0.0000
     atom:   27    charge:    0.8694    magn:    0.0056    constr:    0.0000
     atom:   28    charge:    0.8193    magn:    0.0131    constr:    0.0000
     atom:   29    charge:    0.8014    magn:   -0.0001    constr:    0.0000
     atom:   30    charge:    0.8341    magn:   -0.0000    constr:    0.0000
     atom:   31    charge:    0.8357    magn:    0.0001    constr:    0.0000
     atom:   32    charge:    0.8448    magn:    0.0002    constr:    0.0000
     atom:   33    charge:    0.8476    magn:   -0.0001    constr:    0.0000
     atom:   34    charge:    0.8367    magn:    0.0026    constr:    0.0000
     atom:   35    charge:    0.8303    magn:    0.0008    constr:    0.0000
     atom:   36    charge:    0.8206    magn:    0.0000    constr:    0.0000
     atom:   37    charge:    2.5767    magn:    0.0001    constr:    0.0000
     atom:   38    charge:    2.5810    magn:   -0.0001    constr:    0.0000
     atom:   39    charge:    2.5848    magn:   -0.0003    constr:    0.0000
     atom:   40    charge:    2.5727    magn:    0.0003    constr:    0.0000
     atom:   41    charge:    2.5657    magn:   -0.0000    constr:    0.0000
     atom:   42    charge:    2.5594    magn:    0.0007    constr:    0.0000
     atom:   43    charge:    2.5563    magn:    0.0001    constr:    0.0000
     atom:   44    charge:    2.5788    magn:   -0.0001    constr:    0.0000
     atom:   45    charge:    2.5813    magn:   -0.0002    constr:    0.0000
     atom:   46    charge:    2.5816    magn:   -0.0002    constr:    0.0000
     atom:   47    charge:    2.5748    magn:    0.0009    constr:    0.0000
     atom:   48    charge:    2.5653    magn:   -0.0000    constr:    0.0000
     atom:   49    charge:    2.5592    magn:    0.0017    constr:    0.0000
     atom:   50    charge:    2.5142    magn:   -0.0042    constr:    0.0000
     atom:   51    charge:    2.5918    magn:    0.0001    constr:    0.0000
     atom:   52    charge:    2.5931    magn:    0.0001    constr:    0.0000
     atom:   53    charge:    2.5737    magn:   -0.0002    constr:    0.0000
     atom:   54    charge:    2.5792    magn:    0.0003    constr:    0.0000
     atom:   55    charge:    2.5845    magn:   -0.0001    constr:    0.0000
     atom:   56    charge:    2.5516    magn:    0.0343    constr:    0.0000
     atom:   57    charge:    2.5894    magn:    0.0001    constr:    0.0000
     atom:   58    charge:    2.5851    magn:   -0.0002    constr:    0.0000
     atom:   59    charge:    2.5842    magn:   -0.0003    constr:    0.0000
     atom:   60    charge:    2.5828    magn:    0.0018    constr:    0.0000
     atom:   61    charge:    2.5963    magn:    0.0146    constr:    0.0000
     atom:   62    charge:    2.5520    magn:    0.0344    constr:    0.0000
     atom:   63    charge:    2.5155    magn:   -0.0042    constr:    0.0000
     atom:   64    charge:    2.5746    magn:   -0.0001    constr:    0.0000
     atom:   65    charge:    2.5752    magn:   -0.0001    constr:    0.0000
     atom:   66    charge:    2.5775    magn:    0.0008    constr:    0.0000
     atom:   67    charge:    2.5755    magn:    0.0017    constr:    0.0000
     atom:   68    charge:    2.5872    magn:   -0.0001    constr:    0.0000
     atom:   69    charge:    2.5599    magn:    0.0017    constr:    0.0000
     atom:   70    charge:    2.5481    magn:    0.0001    constr:    0.0000
     atom:   71    charge:    2.5732    magn:    0.0001    constr:    0.0000

     total cpu time spent up to now is      156.6 secs

     End of self-consistent calculation

 ------ SPIN UP ------------


          k = 0.0000 0.0000 0.0000 (182351 PWs)   bands (ev):

   -24.2694 -21.6922 -21.3320 -21.2765 -21.1899 -21.1736 -21.1658 -20.6814
   -20.5892 -20.2933 -20.2418 -20.1560 -20.1260 -20.0200 -19.9660 -19.8669
   -19.7653 -19.7612 -19.5793 -19.2386 -19.0219 -18.9018 -18.8367 -18.8206
   -18.8047 -18.7870 -18.7828 -18.7541 -18.7379 -18.7006 -18.6264 -18.5813
   -18.5585 -18.2159 -18.0764 -15.5664 -13.1117 -13.0323 -12.8753 -12.7514
   -12.5500 -12.3074 -12.2840 -12.2241 -12.2023 -12.1762 -12.1683 -12.1029
   -12.0934 -12.0442 -11.9540 -11.8487 -11.6189 -11.3055 -11.2824 -11.1830
   -11.1373 -11.0012 -10.8905 -10.7808 -10.2867 -10.2446  -9.8946  -9.7748
    -9.6727  -9.6323  -9.6295  -9.6182  -9.5609  -9.5383  -9.5120  -9.4819
    -9.4726  -9.4533  -9.4098  -9.3638  -9.3282  -9.1478  -8.9996  -8.8991
    -8.6934  -8.6730  -8.6653  -8.5977  -8.5416  -8.5179  -8.2696  -8.2430
    -8.2010  -8.1793  -8.0798  -8.0360  -8.0070  -7.9961  -7.9610  -7.9090
    -7.7679  -7.7464  -7.7028  -7.6916  -7.5289  -7.5169  -7.4882  -7.4428
    -7.3998  -7.3341  -7.3196  -7.2909  -7.1979  -7.1312  -6.8896  -6.8223
    -6.7985  -6.7549  -6.7377  -6.6576  -6.6154  -6.5553  -6.4011  -6.3811
    -6.3348  -6.2986  -5.8681  -5.6981  -5.5775  -5.5446  -5.4726  -5.2751
    -5.2350  -5.2121  -5.2102  -5.1970  -5.1933  -5.1406  -5.1392  -5.0736
    -5.0683  -4.9809  -4.9666  -4.3136  -4.1457  -3.4769  -2.2325  -0.2725
     0.5466   0.5808   0.6082   0.7097   0.7160   0.9353   1.2109

 ------ SPIN DOWN ----------


          k = 0.0000 0.0000 0.0000 (182351 PWs)   bands (ev):

   -23.9317 -21.6872 -21.3125 -21.2706 -21.1853 -21.1619 -21.1604 -20.6673
   -20.5354 -20.2855 -20.2391 -20.1542 -20.1214 -20.0068 -19.9623 -19.8596
   -19.7630 -19.7591 -19.5720 -19.2188 -19.0097 -18.8952 -18.8358 -18.8170
   -18.8027 -18.7857 -18.7808 -18.7531 -18.7377 -18.6990 -18.6260 -18.5817
   -18.5581 -18.2130 -18.0752 -15.2654 -13.0886 -13.0149 -12.8689 -12.7028
   -12.5339 -12.3016 -12.2788 -12.2202 -12.1995 -12.1681 -12.1671 -12.0928
   -12.0860 -12.0422 -11.9490 -11.8380 -11.6086 -11.2932 -11.2740 -11.1696
   -11.1302 -10.9957 -10.8818 -10.7701 -10.2720 -10.2182  -9.8809  -9.7578
    -9.6271  -9.6204  -9.6163  -9.5551  -9.5365  -9.5077  -9.4811  -9.4715
    -9.4520  -9.4074  -9.3965  -9.3612  -9.3268  -8.9891  -8.9561  -8.8941
    -8.6772  -8.6578  -8.6521  -8.5913  -8.5187  -8.4470  -8.2663  -8.2355
    -8.1855  -8.1754  -8.0755  -8.0333  -7.9947  -7.9913  -7.9557  -7.9062
    -7.7659  -7.6978  -7.6883  -7.5830  -7.5250  -7.5153  -7.4861  -7.4406
    -7.3403  -7.3172  -7.3137  -7.2783  -7.1897  -7.1063  -6.8408  -6.8163
    -6.7470  -6.7388  -6.7159  -6.6481  -6.5998  -6.5528  -6.4004  -6.3371
    -6.3325  -6.2954  -5.7422  -5.6958  -5.5633  -5.4269  -5.3554  -5.2567
    -5.2225  -5.2052  -5.2034  -5.1880  -5.1832  -5.1376  -5.1361  -5.0679
    -5.0593  -4.9691  -4.9614  -4.2945  -4.1303  -3.2883  -1.2318  -0.0185
     0.5907   0.6067   0.6157   0.7316   0.7401   0.9871   1.2639

     highest occupied, lowest unoccupied level (ev):    -2.2325   -1.2318

!    total energy              =    -920.60948839 Ry
     Harris-Foulkes estimate   =    -920.60948838 Ry
     estimated scf accuracy    <          4.2E-09 Ry

     The total energy is the sum of the following terms:

     one-electron contribution =   -7782.25080857 Ry
     hartree contribution      =    3943.87056239 Ry
     xc contribution           =    -262.27963412 Ry
     ewald contribution        =    3180.05039191 Ry

     total magnetization       =     1.00 Bohr mag/cell
     absolute magnetization    =     1.12 Bohr mag/cell

     convergence has been achieved in  14 iterations

     Writing output data file BN.save
 
     init_run     :      8.15s CPU      8.29s WALL (       1 calls)
     electrons    :    146.87s CPU    148.52s WALL (       1 calls)

     Called by init_run:
     wfcinit      :      4.28s CPU      4.35s WALL (       1 calls)
     potinit      :      1.04s CPU      1.08s WALL (       1 calls)

     Called by electrons:
     c_bands      :    124.75s CPU    125.84s WALL (      14 calls)
     sum_band     :     14.14s CPU     14.29s WALL (      14 calls)
     v_of_rho     :      5.79s CPU      6.03s WALL (      15 calls)
     mix_rho      :      1.84s CPU      1.94s WALL (      14 calls)

     Called by c_bands:
     init_us_2    :      1.26s CPU      1.29s WALL (      29 calls)
     cegterg      :    114.70s CPU    115.77s WALL (      14 calls)

     Called by sum_band:

     Called by *egterg:
     h_psi        :     86.94s CPU     87.02s WALL (      72 calls)
     g_psi        :      0.34s CPU      0.34s WALL (      57 calls)
     cdiaghg      :      3.93s CPU      4.12s WALL (      71 calls)

     Called by h_psi:
     h_psi:pot    :     86.07s CPU     86.15s WALL (      72 calls)
     h_psi:calbec :     11.72s CPU     11.71s WALL (      72 calls)
     vloc_psi     :     62.27s CPU     62.36s WALL (      72 calls)
     add_vuspsi   :     12.09s CPU     12.08s WALL (      72 calls)

     General routines
     calbec       :     11.72s CPU     11.71s WALL (      72 calls)
     fft          :      2.28s CPU      2.59s WALL (     312 calls)
     fftw         :     55.81s CPU     55.87s WALL (   15632 calls)
 
     Parallel routines
     fft_scatter  :     18.79s CPU     19.14s WALL (   15944 calls)
 
     PWSCF        :  2m39.04s CPU     2m41.83s WALL

 
   This run was terminated on:  13:17:28   1Jun2021            

=------------------------------------------------------------------------------=
   JOB DONE.
=------------------------------------------------------------------------------=
