
     Program PWSCF v.6.1 (svn rev. 13369) starts on  1Jun2021 at 13:18:25 

     This program is part of the open-source Quantum ESPRESSO suite
     for quantum simulation of materials; please cite
         "P. Giannozzi et al., J. Phys.:Condens. Matter 21 395502 (2009);
          URL http://www.quantum-espresso.org", 
     in publications or presentations arising from this work. More details at
     http://www.quantum-espresso.org/quote

     Parallel version (MPI), running on    32 processors
     K-points division:     npool     =       2
     R & G space division:  proc/nbgrp/npool/nimage =      16
     Reading input from scf.in
Warning: card &IONS ignored
Warning: card / ignored

     Current dimensions of program PWSCF are:
     Max number of different atomic species (ntypx) = 10
     Max number of k-points (npk) =  40000
     Max angular momentum in pseudopotentials (lmaxx) =  3

     Subspace diagonalization in iterative solution of the eigenvalue problem:
     one sub-group per band group will be used
     scalapack distributed-memory algorithm (size of sub-group:  4*  4 procs)

 
     Parallelization info
     --------------------
     sticks:   dense  smooth     PW     G-vecs:    dense   smooth      PW
     Min         252     252     62                12125    12125    1510
     Max         254     254     63                12129    12129    1515
     Sum        4049    4049   1005               194039   194039   24207
 


     bravais-lattice index     =            1
     lattice parameter (alat)  =      13.4862  a.u.
     unit-cell volume          =    2452.8358 (a.u.)^3
     number of atoms/cell      =           63
     number of atomic types    =            2
     number of electrons       =       254.00 (up: 127.00, down: 127.00)
     number of Kohn-Sham states=          152
     kinetic-energy cutoff     =      70.0000  Ry
     charge density cutoff     =     280.0000  Ry
     convergence threshold     =      1.0E-06
     mixing beta               =       0.5000
     number of iterations used =            8  plain     mixing
     Exchange-correlation      = PBE ( 1  4  3  4 0 0)

     celldm(1)=  13.486197  celldm(2)=   0.000000  celldm(3)=   0.000000
     celldm(4)=   0.000000  celldm(5)=   0.000000  celldm(6)=   0.000000

     crystal axes: (cart. coord. in units of alat)
               a(1) = (   1.000000   0.000000   0.000000 )  
               a(2) = (   0.000000   1.000000   0.000000 )  
               a(3) = (   0.000000   0.000000   1.000000 )  

     reciprocal axes: (cart. coord. in units 2 pi/alat)
               b(1) = (  1.000000  0.000000  0.000000 )  
               b(2) = (  0.000000  1.000000  0.000000 )  
               b(3) = (  0.000000  0.000000  1.000000 )  


     PseudoPot. # 1 for C  read from file:
     /export/data/share/tjsmart/Pseudo/C_ONCV_PBE-1.0.upf
     MD5 check sum: 72b63e32b2fd29504de26a4901699f60
     Pseudo is Norm-conserving, Zval =  4.0
     Generated using ONCVPSP code by D. R. Hamann
     Using radial grid of 1248 points,  4 beta functions with: 
                l(1) =   0
                l(2) =   0
                l(3) =   1
                l(4) =   1

     PseudoPot. # 2 for N  read from file:
     /export/data/share/tjsmart/Pseudo/N_ONCV_PBE-1.0.upf
     MD5 check sum: 09890da6b2972017450f7114a6086fad
     Pseudo is Norm-conserving, Zval =  5.0
     Generated using ONCVPSP code by D. R. Hamann
     Using radial grid of 1058 points,  4 beta functions with: 
                l(1) =   0
                l(2) =   0
                l(3) =   1
                l(4) =   1

     atomic species   valence    mass     pseudopotential
        C              4.00    12.01110     C ( 1.00)
        N              5.00    14.00670     N ( 1.00)

     Starting magnetic structure 
     atomic species   magnetization
        C            0.200
        N            0.200

      6 Sym. Ops. (no inversion) found


                                    s                        frac. trans.

      isym =  1     identity                                     

 cryst.   s( 1) = (     1          0          0      )
                  (     0          1          0      )
                  (     0          0          1      )

 cart.    s( 1) = (  1.0000000  0.0000000  0.0000000 )
                  (  0.0000000  1.0000000  0.0000000 )
                  (  0.0000000  0.0000000  1.0000000 )


      isym =  2     120 deg rotation - cart. axis [-1,-1,-1]     

 cryst.   s( 2) = (     0          0          1      )
                  (     1          0          0      )
                  (     0          1          0      )

 cart.    s( 2) = (  0.0000000  1.0000000  0.0000000 )
                  (  0.0000000  0.0000000  1.0000000 )
                  (  1.0000000  0.0000000  0.0000000 )


      isym =  3     120 deg rotation - cart. axis [1,1,1]        

 cryst.   s( 3) = (     0          1          0      )
                  (     0          0          1      )
                  (     1          0          0      )

 cart.    s( 3) = (  0.0000000  0.0000000  1.0000000 )
                  (  1.0000000  0.0000000  0.0000000 )
                  (  0.0000000  1.0000000  0.0000000 )


      isym =  4     inv. 180 deg rotation - cart. axis [1,-1,0]  

 cryst.   s( 4) = (     0          1          0      )
                  (     1          0          0      )
                  (     0          0          1      )

 cart.    s( 4) = (  0.0000000  1.0000000  0.0000000 )
                  (  1.0000000  0.0000000  0.0000000 )
                  (  0.0000000  0.0000000  1.0000000 )


      isym =  5     inv. 180 deg rotation - cart. axis [-1,0,1]  

 cryst.   s( 5) = (     0          0          1      )
                  (     0          1          0      )
                  (     1          0          0      )

 cart.    s( 5) = (  0.0000000  0.0000000  1.0000000 )
                  (  0.0000000  1.0000000  0.0000000 )
                  (  1.0000000  0.0000000  0.0000000 )


      isym =  6     inv. 180 deg rotation - cart. axis [0,1,-1]  

 cryst.   s( 6) = (     1          0          0      )
                  (     0          0          1      )
                  (     0          1          0      )

 cart.    s( 6) = (  1.0000000  0.0000000  0.0000000 )
                  (  0.0000000  0.0000000  1.0000000 )
                  (  0.0000000  1.0000000  0.0000000 )


     point group C_3v (3m)  
     there are  3 classes
     the character table:

       E     2C3   3s_v 
A_1    1.00  1.00  1.00
A_2    1.00  1.00 -1.00
E      2.00 -1.00  0.00

     the symmetry operations in each class and the name of the first element:

     E        1
          identity                                               
     2C3      2    3
          120 deg rotation - cart. axis [-1,-1,-1]               
     3s_v     4    5    6
          inv. 180 deg rotation - cart. axis [1,-1,0]            

   Cartesian axes

     site n.     atom                  positions (alat units)
         1           C   tau(   1) = (   0.3757705   0.3757705   0.8735987  )
         2           C   tau(   2) = (   0.5002199   0.0003840   0.0003840  )
         3           C   tau(   3) = (   0.4999962  -0.0003597   0.4999962  )
         4           C   tau(   4) = (   0.0003840   0.5002199   0.0003840  )
         5           C   tau(   5) = (  -0.0003597   0.4999962   0.4999962  )
         6           C   tau(   6) = (  -0.0001200  -0.0001200  -0.0001200  )
         7           C   tau(   7) = (   0.0003840   0.0003840   0.5002199  )
         8           C   tau(   8) = (   0.2504072   0.2504072  -0.0009686  )
         9           C   tau(   9) = (   0.2512387   0.2512387   0.4960307  )
        10           C   tau(  10) = (   0.2502040   0.7491127   0.0008776  )
        11           C   tau(  11) = (   0.2514249   0.7484436   0.5020122  )
        12           C   tau(  12) = (   0.7491127   0.2502040   0.0008776  )
        13           C   tau(  13) = (   0.7484436   0.2514249   0.5020122  )
        14           C   tau(  14) = (   0.7495384   0.7495384  -0.0007156  )
        15           C   tau(  15) = (   0.4999962   0.4999962  -0.0003597  )
        16           C   tau(  16) = (   0.7486769   0.7486769   0.4984125  )
        17           C   tau(  17) = (   0.5020122   0.2514249   0.7484436  )
        18           C   tau(  18) = (   0.5020122   0.7484436   0.2514249  )
        19           C   tau(  19) = (   0.4984125   0.7486769   0.7486769  )
        20           C   tau(  20) = (  -0.0009686   0.2504072   0.2504072  )
        21           C   tau(  21) = (   0.0008776   0.2502040   0.7491127  )
        22           C   tau(  22) = (   0.0008776   0.7491127   0.2502040  )
        23           C   tau(  23) = (  -0.0007156   0.7495384   0.7495384  )
        24           C   tau(  24) = (   0.2512387   0.4960307   0.2512387  )
        25           C   tau(  25) = (   0.2514249   0.5020122   0.7484436  )
        26           C   tau(  26) = (   0.2504072  -0.0009686   0.2504072  )
        27           C   tau(  27) = (   0.2502040   0.0008776   0.7491127  )
        28           C   tau(  28) = (   0.7484436   0.5020122   0.2514249  )
        29           C   tau(  29) = (   0.7486769   0.4984125   0.7486769  )
        30           C   tau(  30) = (   0.4960307   0.2512387   0.2512387  )
        31           C   tau(  31) = (   0.7491127   0.0008776   0.2502040  )
        32           C   tau(  32) = (   0.6243271   0.8738160   0.6243271  )
        33           C   tau(  33) = (   0.6359211   0.3634580   0.6359211  )
        34           C   tau(  34) = (   0.3757296   0.8762176   0.8762176  )
        35           C   tau(  35) = (   0.3757705   0.8735987   0.3757705  )
        36           C   tau(  36) = (   0.8762176   0.3757296   0.8762176  )
        37           C   tau(  37) = (   0.8735987   0.3757705   0.3757705  )
        38           C   tau(  38) = (   0.8745330   0.8745330   0.8745330  )
        39           C   tau(  39) = (   0.8762176   0.8762176   0.3757296  )
        40           C   tau(  40) = (   0.1253729   0.1253729   0.8743888  )
        41           C   tau(  41) = (   0.1244182   0.1244182   0.3748717  )
        42           C   tau(  42) = (   0.1237553   0.6243718   0.8760864  )
        43           C   tau(  43) = (   0.1266863   0.6233579   0.3763697  )
        44           C   tau(  44) = (   0.6243718   0.1237553   0.8760864  )
        45           C   tau(  45) = (   0.6233579   0.1266863   0.3763697  )
        46           C   tau(  46) = (   0.6243718   0.8760864   0.1237553  )
        47           C   tau(  47) = (   0.6243271   0.6243271   0.8738160  )
        48           C   tau(  48) = (   0.3748717   0.1244182   0.1244182  )
        49           C   tau(  49) = (   0.3763697   0.1266863   0.6233579  )
        50           C   tau(  50) = (   0.3763697   0.6233579   0.1266863  )
        51           C   tau(  51) = (   0.3634580   0.6359211   0.6359211  )
        52           C   tau(  52) = (   0.8743888   0.1253729   0.1253729  )
        53           C   tau(  53) = (   0.8760864   0.1237553   0.6243718  )
        54           C   tau(  54) = (   0.8760864   0.6243718   0.1237553  )
        55           C   tau(  55) = (   0.8738160   0.6243271   0.6243271  )
        56           C   tau(  56) = (   0.1244182   0.3748717   0.1244182  )
        57           C   tau(  57) = (   0.1266863   0.3763697   0.6233579  )
        58           C   tau(  58) = (   0.1253729   0.8743888   0.1253729  )
        59           C   tau(  59) = (   0.1237553   0.8760864   0.6243718  )
        60           C   tau(  60) = (   0.6233579   0.3763697   0.1266863  )
        61           C   tau(  61) = (   0.6359211   0.6359211   0.3634580  )
        62           C   tau(  62) = (   0.7495384  -0.0007156   0.7495384  )
        63           N   tau(  63) = (   0.3671629   0.3671629   0.3671629  )

   Crystallographic axes

     site n.     atom                  positions (cryst. coord.)
         1           C   tau(   1) = (  0.3757705  0.3757705  0.8735987  )
         2           C   tau(   2) = (  0.5002199  0.0003840  0.0003840  )
         3           C   tau(   3) = (  0.4999962 -0.0003597  0.4999962  )
         4           C   tau(   4) = (  0.0003840  0.5002199  0.0003840  )
         5           C   tau(   5) = ( -0.0003597  0.4999962  0.4999962  )
         6           C   tau(   6) = ( -0.0001200 -0.0001200 -0.0001200  )
         7           C   tau(   7) = (  0.0003840  0.0003840  0.5002199  )
         8           C   tau(   8) = (  0.2504072  0.2504072 -0.0009686  )
         9           C   tau(   9) = (  0.2512387  0.2512387  0.4960307  )
        10           C   tau(  10) = (  0.2502040  0.7491127  0.0008776  )
        11           C   tau(  11) = (  0.2514249  0.7484436  0.5020122  )
        12           C   tau(  12) = (  0.7491127  0.2502040  0.0008776  )
        13           C   tau(  13) = (  0.7484436  0.2514249  0.5020122  )
        14           C   tau(  14) = (  0.7495384  0.7495384 -0.0007156  )
        15           C   tau(  15) = (  0.4999962  0.4999962 -0.0003597  )
        16           C   tau(  16) = (  0.7486769  0.7486769  0.4984125  )
        17           C   tau(  17) = (  0.5020122  0.2514249  0.7484436  )
        18           C   tau(  18) = (  0.5020122  0.7484436  0.2514249  )
        19           C   tau(  19) = (  0.4984125  0.7486769  0.7486769  )
        20           C   tau(  20) = ( -0.0009686  0.2504072  0.2504072  )
        21           C   tau(  21) = (  0.0008776  0.2502040  0.7491127  )
        22           C   tau(  22) = (  0.0008776  0.7491127  0.2502040  )
        23           C   tau(  23) = ( -0.0007156  0.7495384  0.7495384  )
        24           C   tau(  24) = (  0.2512387  0.4960307  0.2512387  )
        25           C   tau(  25) = (  0.2514249  0.5020122  0.7484436  )
        26           C   tau(  26) = (  0.2504072 -0.0009686  0.2504072  )
        27           C   tau(  27) = (  0.2502040  0.0008776  0.7491127  )
        28           C   tau(  28) = (  0.7484436  0.5020122  0.2514249  )
        29           C   tau(  29) = (  0.7486769  0.4984125  0.7486769  )
        30           C   tau(  30) = (  0.4960307  0.2512387  0.2512387  )
        31           C   tau(  31) = (  0.7491127  0.0008776  0.2502040  )
        32           C   tau(  32) = (  0.6243271  0.8738160  0.6243271  )
        33           C   tau(  33) = (  0.6359211  0.3634580  0.6359211  )
        34           C   tau(  34) = (  0.3757296  0.8762176  0.8762176  )
        35           C   tau(  35) = (  0.3757705  0.8735987  0.3757705  )
        36           C   tau(  36) = (  0.8762176  0.3757296  0.8762176  )
        37           C   tau(  37) = (  0.8735987  0.3757705  0.3757705  )
        38           C   tau(  38) = (  0.8745330  0.8745330  0.8745330  )
        39           C   tau(  39) = (  0.8762176  0.8762176  0.3757296  )
        40           C   tau(  40) = (  0.1253729  0.1253729  0.8743888  )
        41           C   tau(  41) = (  0.1244182  0.1244182  0.3748717  )
        42           C   tau(  42) = (  0.1237553  0.6243718  0.8760864  )
        43           C   tau(  43) = (  0.1266863  0.6233579  0.3763697  )
        44           C   tau(  44) = (  0.6243718  0.1237553  0.8760864  )
        45           C   tau(  45) = (  0.6233579  0.1266863  0.3763697  )
        46           C   tau(  46) = (  0.6243718  0.8760864  0.1237553  )
        47           C   tau(  47) = (  0.6243271  0.6243271  0.8738160  )
        48           C   tau(  48) = (  0.3748717  0.1244182  0.1244182  )
        49           C   tau(  49) = (  0.3763697  0.1266863  0.6233579  )
        50           C   tau(  50) = (  0.3763697  0.6233579  0.1266863  )
        51           C   tau(  51) = (  0.3634580  0.6359211  0.6359211  )
        52           C   tau(  52) = (  0.8743888  0.1253729  0.1253729  )
        53           C   tau(  53) = (  0.8760864  0.1237553  0.6243718  )
        54           C   tau(  54) = (  0.8760864  0.6243718  0.1237553  )
        55           C   tau(  55) = (  0.8738160  0.6243271  0.6243271  )
        56           C   tau(  56) = (  0.1244182  0.3748717  0.1244182  )
        57           C   tau(  57) = (  0.1266863  0.3763697  0.6233579  )
        58           C   tau(  58) = (  0.1253729  0.8743888  0.1253729  )
        59           C   tau(  59) = (  0.1237553  0.8760864  0.6243718  )
        60           C   tau(  60) = (  0.6233579  0.3763697  0.1266863  )
        61           C   tau(  61) = (  0.6359211  0.6359211  0.3634580  )
        62           C   tau(  62) = (  0.7495384 -0.0007156  0.7495384  )
        63           N   tau(  63) = (  0.3671629  0.3671629  0.3671629  )

     number of k points=     1  Marzari-Vanderbilt smearing, width (Ry)=  0.0010
                       cart. coord. in units 2pi/alat
        k(    1) = (   0.0000000   0.0000000   0.0000000), wk =   1.0000000

                       cryst. coord.
        k(    1) = (   0.0000000   0.0000000   0.0000000), wk =   1.0000000

     Dense  grid:   194039 G-vectors     FFT dimensions: (  72,  72,  72)

     Estimated max dynamical RAM per process >      42.63MB

     Estimated total allocated dynamical RAM >    1364.05MB
     Generating pointlists ...
     new r_m :   0.0857 (alat units)  1.1555 (a.u.) for type    1
     new r_m :   0.0860 (alat units)  1.1601 (a.u.) for type    2

     Initial potential from superposition of free atoms

     starting charge  252.99722, renormalised to  254.00000
     Starting wfc are  252 randomized atomic wfcs

     total cpu time spent up to now is        3.2 secs

     per-process dynamical memory:    49.0 Mb

     Self-consistent Calculation

     iteration #  1     ecut=    70.00 Ry     beta=0.50
     Davidson diagonalization with overlap
     ethr =  1.00E-02,  avg # of iterations =  3.0

     total cpu time spent up to now is        4.3 secs

     total energy              =    -723.96139467 Ry
     Harris-Foulkes estimate   =    -724.47477690 Ry
     estimated scf accuracy    <       4.39441478 Ry

     total magnetization       =    -0.00 Bohr mag/cell
     absolute magnetization    =     0.88 Bohr mag/cell

     iteration #  2     ecut=    70.00 Ry     beta=0.50
     Davidson diagonalization with overlap
     ethr =  1.73E-03,  avg # of iterations =  2.0

     total cpu time spent up to now is        5.0 secs

     total energy              =    -724.27558696 Ry
     Harris-Foulkes estimate   =    -724.21287805 Ry
     estimated scf accuracy    <       0.70823986 Ry

     total magnetization       =    -0.00 Bohr mag/cell
     absolute magnetization    =     0.33 Bohr mag/cell

     iteration #  3     ecut=    70.00 Ry     beta=0.50
     Davidson diagonalization with overlap
     ethr =  2.79E-04,  avg # of iterations =  4.0

     total cpu time spent up to now is        6.0 secs

     total energy              =    -724.34484996 Ry
     Harris-Foulkes estimate   =    -724.39783681 Ry
     estimated scf accuracy    <       0.18527086 Ry

     total magnetization       =    -0.00 Bohr mag/cell
     absolute magnetization    =     0.12 Bohr mag/cell

     iteration #  4     ecut=    70.00 Ry     beta=0.50
     Davidson diagonalization with overlap
     ethr =  7.29E-05,  avg # of iterations = 10.5

     total cpu time spent up to now is        7.6 secs

     total energy              =    -724.38936162 Ry
     Harris-Foulkes estimate   =    -724.38618719 Ry
     estimated scf accuracy    <       0.01200638 Ry

     total magnetization       =    -0.00 Bohr mag/cell
     absolute magnetization    =     0.07 Bohr mag/cell

     iteration #  5     ecut=    70.00 Ry     beta=0.50
     Davidson diagonalization with overlap
     ethr =  4.73E-06,  avg # of iterations = 12.0

     total cpu time spent up to now is        9.4 secs

     total energy              =    -724.39239621 Ry
     Harris-Foulkes estimate   =    -724.39224117 Ry
     estimated scf accuracy    <       0.00152603 Ry

     total magnetization       =    -0.00 Bohr mag/cell
     absolute magnetization    =     0.04 Bohr mag/cell

     iteration #  6     ecut=    70.00 Ry     beta=0.50
     Davidson diagonalization with overlap
     ethr =  6.01E-07,  avg # of iterations = 11.5

     total cpu time spent up to now is       11.0 secs

     total energy              =    -724.39267813 Ry
     Harris-Foulkes estimate   =    -724.39269611 Ry
     estimated scf accuracy    <       0.00018980 Ry

     total magnetization       =     0.00 Bohr mag/cell
     absolute magnetization    =     0.02 Bohr mag/cell

     iteration #  7     ecut=    70.00 Ry     beta=0.50
     Davidson diagonalization with overlap
     ethr =  7.47E-08,  avg # of iterations =  3.0

     total cpu time spent up to now is       11.9 secs

     total energy              =    -724.39273120 Ry
     Harris-Foulkes estimate   =    -724.39273808 Ry
     estimated scf accuracy    <       0.00003085 Ry

     total magnetization       =     0.00 Bohr mag/cell
     absolute magnetization    =     0.01 Bohr mag/cell

     iteration #  8     ecut=    70.00 Ry     beta=0.50
     Davidson diagonalization with overlap
     ethr =  1.21E-08,  avg # of iterations =  3.0

     total cpu time spent up to now is       12.8 secs

     total energy              =    -724.39273849 Ry
     Harris-Foulkes estimate   =    -724.39273811 Ry
     estimated scf accuracy    <       0.00000232 Ry

     total magnetization       =    -0.00 Bohr mag/cell
     absolute magnetization    =     0.01 Bohr mag/cell

     iteration #  9     ecut=    70.00 Ry     beta=0.50
     Davidson diagonalization with overlap
     ethr =  9.13E-10,  avg # of iterations =  3.0
 
     Magnetic moment per site:
     atom:    1    charge:    1.8387    magn:   -0.0000    constr:    0.0000
     atom:    2    charge:    1.8586    magn:   -0.0000    constr:    0.0000
     atom:    3    charge:    1.8471    magn:    0.0000    constr:    0.0000
     atom:    4    charge:    1.8586    magn:   -0.0000    constr:    0.0000
     atom:    5    charge:    1.8471    magn:    0.0000    constr:    0.0000
     atom:    6    charge:    1.8369    magn:    0.0000    constr:    0.0000
     atom:    7    charge:    1.8586    magn:   -0.0000    constr:    0.0000
     atom:    8    charge:    1.8397    magn:    0.0000    constr:    0.0000
     atom:    9    charge:    1.8132    magn:   -0.0002    constr:    0.0000
     atom:   10    charge:    1.8345    magn:    0.0000    constr:    0.0000
     atom:   11    charge:    1.8480    magn:    0.0000    constr:    0.0000
     atom:   12    charge:    1.8345    magn:    0.0000    constr:    0.0000
     atom:   13    charge:    1.8480    magn:    0.0000    constr:    0.0000
     atom:   14    charge:    1.8389    magn:    0.0000    constr:    0.0000
     atom:   15    charge:    1.8471    magn:    0.0000    constr:    0.0000
     atom:   16    charge:    1.8459    magn:    0.0000    constr:    0.0000
     atom:   17    charge:    1.8480    magn:    0.0000    constr:    0.0000
     atom:   18    charge:    1.8480    magn:    0.0000    constr:    0.0000
     atom:   19    charge:    1.8459    magn:    0.0000    constr:    0.0000
     atom:   20    charge:    1.8397    magn:    0.0000    constr:    0.0000
     atom:   21    charge:    1.8345    magn:    0.0000    constr:    0.0000
     atom:   22    charge:    1.8345    magn:    0.0000    constr:    0.0000
     atom:   23    charge:    1.8389    magn:    0.0000    constr:    0.0000
     atom:   24    charge:    1.8132    magn:   -0.0002    constr:    0.0000
     atom:   25    charge:    1.8480    magn:    0.0000    constr:    0.0000
     atom:   26    charge:    1.8397    magn:    0.0000    constr:    0.0000
     atom:   27    charge:    1.8345    magn:    0.0000    constr:    0.0000
     atom:   28    charge:    1.8480    magn:    0.0000    constr:    0.0000
     atom:   29    charge:    1.8459    magn:    0.0000    constr:    0.0000
     atom:   30    charge:    1.8132    magn:   -0.0002    constr:    0.0000
     atom:   31    charge:    1.8345    magn:    0.0000    constr:    0.0000
     atom:   32    charge:    1.8395    magn:   -0.0000    constr:    0.0000
     atom:   33    charge:    1.8594    magn:   -0.0000    constr:    0.0000
     atom:   34    charge:    1.8365    magn:    0.0000    constr:    0.0000
     atom:   35    charge:    1.8387    magn:   -0.0000    constr:    0.0000
     atom:   36    charge:    1.8365    magn:    0.0000    constr:    0.0000
     atom:   37    charge:    1.8387    magn:   -0.0000    constr:    0.0000
     atom:   38    charge:    1.8432    magn:   -0.0000    constr:    0.0000
     atom:   39    charge:    1.8365    magn:    0.0000    constr:    0.0000
     atom:   40    charge:    1.8428    magn:    0.0000    constr:    0.0000
     atom:   41    charge:    1.8477    magn:    0.0000    constr:    0.0000
     atom:   42    charge:    1.8412    magn:    0.0000    constr:    0.0000
     atom:   43    charge:    1.8373    magn:    0.0000    constr:    0.0000
     atom:   44    charge:    1.8412    magn:    0.0000    constr:    0.0000
     atom:   45    charge:    1.8373    magn:    0.0000    constr:    0.0000
     atom:   46    charge:    1.8412    magn:    0.0000    constr:    0.0000
     atom:   47    charge:    1.8395    magn:   -0.0000    constr:    0.0000
     atom:   48    charge:    1.8477    magn:    0.0000    constr:    0.0000
     atom:   49    charge:    1.8373    magn:    0.0000    constr:    0.0000
     atom:   50    charge:    1.8373    magn:    0.0000    constr:    0.0000
     atom:   51    charge:    1.8594    magn:   -0.0000    constr:    0.0000
     atom:   52    charge:    1.8428    magn:    0.0000    constr:    0.0000
     atom:   53    charge:    1.8412    magn:    0.0000    constr:    0.0000
     atom:   54    charge:    1.8412    magn:    0.0000    constr:    0.0000
     atom:   55    charge:    1.8395    magn:   -0.0000    constr:    0.0000
     atom:   56    charge:    1.8477    magn:    0.0000    constr:    0.0000
     atom:   57    charge:    1.8373    magn:    0.0000    constr:    0.0000
     atom:   58    charge:    1.8428    magn:    0.0000    constr:    0.0000
     atom:   59    charge:    1.8412    magn:    0.0000    constr:    0.0000
     atom:   60    charge:    1.8373    magn:    0.0000    constr:    0.0000
     atom:   61    charge:    1.8594    magn:   -0.0000    constr:    0.0000
     atom:   62    charge:    1.8389    magn:    0.0000    constr:    0.0000
     atom:   63    charge:    2.9422    magn:    0.0007    constr:    0.0000

     total cpu time spent up to now is       13.8 secs

     End of self-consistent calculation

 ------ SPIN UP ------------


          k = 0.0000 0.0000 0.0000 ( 24207 PWs)   bands (ev):

    -8.5305  -6.8809  -6.2632  -6.2632  -6.1515  -6.1515  -5.8612  -4.8881
    -4.1175  -4.1175  -4.0881  -4.0881  -4.0053  -4.0016  -4.0016  -3.9241
    -3.8539  -3.8539  -3.3490  -2.9346  -2.6505  -2.6505  -2.0592  -0.3514
    -0.3514  -0.3290  -0.2992  -0.0758   0.1893   0.1893   0.2923   0.2923
     0.3646   0.6165   0.8424   0.8424   0.9885   0.9898   0.9898   1.0448
     1.0448   1.0458   1.3648   1.3648   3.0923   3.9536   3.9536   4.0638
     4.2144   4.2167   4.2167   4.2581   4.2625   4.2625   4.4257   4.4257
     4.4840   4.4840   4.5705   4.6585   4.6587   4.6594   4.6594   4.7644
     4.7644   4.8889   4.9501   4.9501   5.0613   5.2138   5.2138   5.2902
     5.3422   5.3422   5.3786   5.4114   5.4114   6.0308   6.0308   6.0702
     6.6343   6.6343   6.7154   7.0102   7.0275   7.0275   7.5570   8.3405
     8.3405   8.4014   8.4599   8.4599   8.6516   8.6516   8.7816   8.8058
     8.8058   8.8216   8.8709   8.8709   8.8804   9.2656   9.2710   9.2710
     9.6870   9.6870   9.8783   9.8902   9.9092   9.9092   9.9112   9.9520
     9.9520   9.9749   9.9935   9.9935  10.0842  10.0842  10.2892  10.2892
    10.2899  11.1098  12.3401  12.4646  12.4646  14.0362  15.3206  15.3206
    17.3090  17.3504  17.3504  17.4885  17.5450  17.5450  17.8229  17.9040
    17.9040  18.0087  18.0087  18.3697  18.9334  18.9334  18.9680  20.6337
    20.7793  20.7793  20.8269  20.9007  20.9007  20.9892  20.9896  20.9932

     occupation numbers 
     1.0000   1.0000   1.0000   1.0000   1.0000   1.0000   1.0000   1.0000
     1.0000   1.0000   1.0000   1.0000   1.0000   1.0000   1.0000   1.0000
     1.0000   1.0000   1.0000   1.0000   1.0000   1.0000   1.0000   1.0000
     1.0000   1.0000   1.0000   1.0000   1.0000   1.0000   1.0000   1.0000
     1.0000   1.0000   1.0000   1.0000   1.0000   1.0000   1.0000   1.0000
     1.0000   1.0000   1.0000   1.0000   1.0000   1.0000   1.0000   1.0000
     1.0000   1.0000   1.0000   1.0000   1.0000   1.0000   1.0000   1.0000
     1.0000   1.0000   1.0000   1.0000   1.0000   1.0000   1.0000   1.0000
     1.0000   1.0000   1.0000   1.0000   1.0000   1.0000   1.0000   1.0000
     1.0000   1.0000   1.0000   1.0000   1.0000   1.0000   1.0000   1.0000
     1.0000   1.0000   1.0000   1.0000   1.0000   1.0000   1.0000   1.0000
     1.0000   1.0000   1.0000   1.0000   1.0000   1.0000   1.0000   1.0000
     1.0000   1.0000   1.0000   1.0000   1.0000   1.0000   1.0000   1.0000
     1.0000   1.0000   1.0000   1.0000   1.0000   1.0000   1.0000   1.0000
     1.0000   1.0000   1.0000   1.0000   1.0000   1.0000   1.0000   1.0000
     1.0000   1.0000   1.0000   1.0000   1.0000   1.0000   0.5000   0.5000
     0.0000   0.0000   0.0000   0.0000   0.0000   0.0000   0.0000   0.0000
     0.0000   0.0000   0.0000   0.0000   0.0000   0.0000   0.0000   0.0000
     0.0000   0.0000   0.0000   0.0000   0.0000   0.0000   0.0000   0.0000

 ------ SPIN DOWN ----------


          k = 0.0000 0.0000 0.0000 ( 24207 PWs)   bands (ev):

    -8.5305  -6.8804  -6.2634  -6.2634  -6.1516  -6.1516  -5.8613  -4.8877
    -4.1176  -4.1176  -4.0883  -4.0883  -4.0054  -4.0017  -4.0017  -3.9242
    -3.8540  -3.8540  -3.3491  -2.9346  -2.6506  -2.6506  -2.0592  -0.3515
    -0.3515  -0.3291  -0.2993  -0.0756   0.1892   0.1892   0.2923   0.2923
     0.3645   0.6166   0.8422   0.8422   0.9885   0.9898   0.9898   1.0447
     1.0447   1.0457   1.3647   1.3647   3.0923   3.9537   3.9537   4.0638
     4.2144   4.2167   4.2167   4.2580   4.2624   4.2624   4.4256   4.4256
     4.4839   4.4839   4.5705   4.6585   4.6586   4.6593   4.6593   4.7644
     4.7644   4.8889   4.9501   4.9501   5.0612   5.2138   5.2138   5.2902
     5.3421   5.3421   5.3785   5.4113   5.4113   6.0307   6.0307   6.0702
     6.6343   6.6343   6.7153   7.0102   7.0274   7.0274   7.5569   8.3406
     8.3406   8.4014   8.4599   8.4599   8.6517   8.6517   8.7815   8.8057
     8.8057   8.8217   8.8709   8.8709   8.8805   9.2656   9.2710   9.2710
     9.6871   9.6871   9.8783   9.8902   9.9092   9.9092   9.9112   9.9520
     9.9520   9.9749   9.9935   9.9935  10.0843  10.0843  10.2893  10.2893
    10.2899  11.1102  12.3400  12.4645  12.4645  14.0368  15.3201  15.3201
    17.3090  17.3504  17.3504  17.4885  17.5450  17.5450  17.8230  17.9039
    17.9039  18.0087  18.0087  18.3696  18.9335  18.9335  18.9681  20.6340
    20.7793  20.7793  20.8270  20.9008  20.9008  20.9893  20.9895  20.9933

     occupation numbers 
     1.0000   1.0000   1.0000   1.0000   1.0000   1.0000   1.0000   1.0000
     1.0000   1.0000   1.0000   1.0000   1.0000   1.0000   1.0000   1.0000
     1.0000   1.0000   1.0000   1.0000   1.0000   1.0000   1.0000   1.0000
     1.0000   1.0000   1.0000   1.0000   1.0000   1.0000   1.0000   1.0000
     1.0000   1.0000   1.0000   1.0000   1.0000   1.0000   1.0000   1.0000
     1.0000   1.0000   1.0000   1.0000   1.0000   1.0000   1.0000   1.0000
     1.0000   1.0000   1.0000   1.0000   1.0000   1.0000   1.0000   1.0000
     1.0000   1.0000   1.0000   1.0000   1.0000   1.0000   1.0000   1.0000
     1.0000   1.0000   1.0000   1.0000   1.0000   1.0000   1.0000   1.0000
     1.0000   1.0000   1.0000   1.0000   1.0000   1.0000   1.0000   1.0000
     1.0000   1.0000   1.0000   1.0000   1.0000   1.0000   1.0000   1.0000
     1.0000   1.0000   1.0000   1.0000   1.0000   1.0000   1.0000   1.0000
     1.0000   1.0000   1.0000   1.0000   1.0000   1.0000   1.0000   1.0000
     1.0000   1.0000   1.0000   1.0000   1.0000   1.0000   1.0000   1.0000
     1.0000   1.0000   1.0000   1.0000   1.0000   1.0000   1.0000   1.0000
     1.0000   1.0000   1.0000   1.0000   1.0000   1.0000   0.5000   0.5000
     0.0000   0.0000   0.0000   0.0000   0.0000   0.0000   0.0000   0.0000
     0.0000   0.0000   0.0000   0.0000   0.0000   0.0000   0.0000   0.0000
     0.0000   0.0000   0.0000   0.0000   0.0000   0.0000   0.0000   0.0000

     the spin up/dw Fermi energies are    15.3224   15.3220 ev

!    total energy              =    -724.39273970 Ry
     Harris-Foulkes estimate   =    -724.39273921 Ry
     estimated scf accuracy    <       0.00000040 Ry

     The total energy is the sum of the following terms:

     one-electron contribution =     232.32759283 Ry
     hartree contribution      =      70.01471390 Ry
     xc contribution           =    -226.59913017 Ry
     ewald contribution        =    -800.13525989 Ry
     smearing contrib. (-TS)   =      -0.00065637 Ry

     total magnetization       =    -0.00 Bohr mag/cell
     absolute magnetization    =     0.00 Bohr mag/cell

     convergence has been achieved in   9 iterations

     Writing output data file di.save
 
     init_run     :      0.89s CPU      1.10s WALL (       1 calls)
     electrons    :     10.27s CPU     10.65s WALL (       1 calls)

     Called by init_run:
     wfcinit      :      0.39s CPU      0.43s WALL (       1 calls)
     wfcinit:atom :      0.00s CPU      0.00s WALL (       1 calls)
     wfcinit:wfcr :      0.37s CPU      0.40s WALL (       1 calls)
     potinit      :      0.07s CPU      0.08s WALL (       1 calls)

     Called by electrons:
     c_bands      :      9.28s CPU      9.62s WALL (       9 calls)
     sum_band     :      0.53s CPU      0.55s WALL (       9 calls)
     v_of_rho     :      0.37s CPU      0.38s WALL (      10 calls)
     v_h          :      0.01s CPU      0.01s WALL (      10 calls)
     v_xc         :      0.36s CPU      0.37s WALL (      10 calls)
     mix_rho      :      0.06s CPU      0.06s WALL (       9 calls)

     Called by c_bands:
     init_us_2    :      0.09s CPU      0.09s WALL (      19 calls)
     cegterg      :      8.86s CPU      9.20s WALL (       9 calls)

     Called by sum_band:

     Called by *egterg:
     h_psi        :      4.11s CPU      4.20s WALL (      62 calls)
     g_psi        :      0.02s CPU      0.02s WALL (      52 calls)
     cdiaghg      :      2.99s CPU      3.14s WALL (      61 calls)
     cegterg:over :      0.78s CPU      0.79s WALL (      52 calls)
     cegterg:upda :      0.77s CPU      0.77s WALL (      52 calls)
     cegterg:last :      0.26s CPU      0.26s WALL (       9 calls)
     cdiaghg:chol :      0.24s CPU      0.28s WALL (      61 calls)
     cdiaghg:inve :      0.16s CPU      0.17s WALL (      61 calls)
     cdiaghg:para :      0.25s CPU      0.28s WALL (     122 calls)

     Called by h_psi:
     h_psi:pot    :      4.05s CPU      4.15s WALL (      62 calls)
     h_psi:calbec :      0.89s CPU      0.91s WALL (      62 calls)
     vloc_psi     :      2.26s CPU      2.31s WALL (      62 calls)
     add_vuspsi   :      0.90s CPU      0.92s WALL (      62 calls)

     General routines
     calbec       :      0.89s CPU      0.91s WALL (      62 calls)
     fft          :      0.11s CPU      0.20s WALL (     207 calls)
     fftw         :      2.44s CPU      2.42s WALL (    9176 calls)
 
     Parallel routines
     fft_scatter  :      0.70s CPU      0.73s WALL (    9383 calls)
 
     PWSCF        :    11.79s CPU        14.54s WALL

 
   This run was terminated on:  13:18:39   1Jun2021            

=------------------------------------------------------------------------------=
   JOB DONE.
=------------------------------------------------------------------------------=
