
     Program PWSCF v.6.1 (svn rev. 13369) starts on  8May2020 at 15:10: 2 

     This program is part of the open-source Quantum ESPRESSO suite
     for quantum simulation of materials; please cite
         "P. Giannozzi et al., J. Phys.:Condens. Matter 21 395502 (2009);
          URL http://www.quantum-espresso.org", 
     in publications or presentations arising from this work. More details at
     http://www.quantum-espresso.org/quote

     Parallel version (MPI), running on    96 processors
     K-points division:     npool     =       6
     R & G space division:  proc/nbgrp/npool/nimage =      16
     Reading input from relax.in

     Current dimensions of program PWSCF are:
     Max number of different atomic species (ntypx) = 10
     Max number of k-points (npk) =  40000
     Max angular momentum in pseudopotentials (lmaxx) =  3

     Subspace diagonalization in iterative solution of the eigenvalue problem:
     one sub-group per band group will be used
     scalapack distributed-memory algorithm (size of sub-group:  2*  2 procs)

 
     Parallelization info
     --------------------
     sticks:   dense  smooth     PW     G-vecs:    dense   smooth      PW
     Min         252     252     67                12125    12125    1669
     Max         254     254     68                12129    12129    1672
     Sum        4049    4049   1085               194039   194039   26745
 


     bravais-lattice index     =            1
     lattice parameter (alat)  =      13.4862  a.u.
     unit-cell volume          =    2452.8358 (a.u.)^3
     number of atoms/cell      =           63
     number of atomic types    =            2
     number of electrons       =       254.00
     number of Kohn-Sham states=          152
     kinetic-energy cutoff     =      70.0000  Ry
     charge density cutoff     =     280.0000  Ry
     convergence threshold     =      1.0E-06
     mixing beta               =       0.5000
     number of iterations used =            8  plain     mixing
     Exchange-correlation      = PBE ( 1  4  3  4 0 0)
     nstep                     =           50


     celldm(1)=  13.486197  celldm(2)=   0.000000  celldm(3)=   0.000000
     celldm(4)=   0.000000  celldm(5)=   0.000000  celldm(6)=   0.000000

     crystal axes: (cart. coord. in units of alat)
               a(1) = (   1.000000   0.000000   0.000000 )  
               a(2) = (   0.000000   1.000000   0.000000 )  
               a(3) = (   0.000000   0.000000   1.000000 )  

     reciprocal axes: (cart. coord. in units 2 pi/alat)
               b(1) = (  1.000000  0.000000  0.000000 )  
               b(2) = (  0.000000  1.000000  0.000000 )  
               b(3) = (  0.000000  0.000000  1.000000 )  


     PseudoPot. # 1 for C  read from file:
     /home/tjsmart/Pseudo/C_ONCV_PBE-1.0.upf
     MD5 check sum: 72b63e32b2fd29504de26a4901699f60
     Pseudo is Norm-conserving, Zval =  4.0
     Generated using ONCVPSP code by D. R. Hamann
     Using radial grid of 1248 points,  4 beta functions with: 
                l(1) =   0
                l(2) =   0
                l(3) =   1
                l(4) =   1

     PseudoPot. # 2 for N  read from file:
     /home/tjsmart/Pseudo/N_ONCV_PBE-1.0.upf
     MD5 check sum: 09890da6b2972017450f7114a6086fad
     Pseudo is Norm-conserving, Zval =  5.0
     Generated using ONCVPSP code by D. R. Hamann
     Using radial grid of 1058 points,  4 beta functions with: 
                l(1) =   0
                l(2) =   0
                l(3) =   1
                l(4) =   1

     atomic species   valence    mass     pseudopotential
        C              4.00    12.01110     C ( 1.00)
        N              5.00    14.00670     N ( 1.00)

     Starting magnetic structure 
     atomic species   magnetization
        C            0.500
        N            0.500

      6 Sym. Ops. (no inversion) found


                                    s                        frac. trans.

      isym =  1     identity                                     

 cryst.   s( 1) = (     1          0          0      )
                  (     0          1          0      )
                  (     0          0          1      )

 cart.    s( 1) = (  1.0000000  0.0000000  0.0000000 )
                  (  0.0000000  1.0000000  0.0000000 )
                  (  0.0000000  0.0000000  1.0000000 )


      isym =  2     120 deg rotation - cart. axis [-1,-1,-1]     

 cryst.   s( 2) = (     0          0          1      )
                  (     1          0          0      )
                  (     0          1          0      )

 cart.    s( 2) = (  0.0000000  1.0000000  0.0000000 )
                  (  0.0000000  0.0000000  1.0000000 )
                  (  1.0000000  0.0000000  0.0000000 )


      isym =  3     120 deg rotation - cart. axis [1,1,1]        

 cryst.   s( 3) = (     0          1          0      )
                  (     0          0          1      )
                  (     1          0          0      )

 cart.    s( 3) = (  0.0000000  0.0000000  1.0000000 )
                  (  1.0000000  0.0000000  0.0000000 )
                  (  0.0000000  1.0000000  0.0000000 )


      isym =  4     inv. 180 deg rotation - cart. axis [1,-1,0]  

 cryst.   s( 4) = (     0          1          0      )
                  (     1          0          0      )
                  (     0          0          1      )

 cart.    s( 4) = (  0.0000000  1.0000000  0.0000000 )
                  (  1.0000000  0.0000000  0.0000000 )
                  (  0.0000000  0.0000000  1.0000000 )


      isym =  5     inv. 180 deg rotation - cart. axis [-1,0,1]  

 cryst.   s( 5) = (     0          0          1      )
                  (     0          1          0      )
                  (     1          0          0      )

 cart.    s( 5) = (  0.0000000  0.0000000  1.0000000 )
                  (  0.0000000  1.0000000  0.0000000 )
                  (  1.0000000  0.0000000  0.0000000 )


      isym =  6     inv. 180 deg rotation - cart. axis [0,1,-1]  

 cryst.   s( 6) = (     1          0          0      )
                  (     0          0          1      )
                  (     0          1          0      )

 cart.    s( 6) = (  1.0000000  0.0000000  0.0000000 )
                  (  0.0000000  0.0000000  1.0000000 )
                  (  0.0000000  1.0000000  0.0000000 )


     point group C_3v (3m)  
     there are  3 classes
     the character table:

       E     2C3   3s_v 
A_1    1.00  1.00  1.00
A_2    1.00  1.00 -1.00
E      2.00 -1.00  0.00

     the symmetry operations in each class and the name of the first element:

     E        1
          identity                                               
     2C3      2    3
          120 deg rotation - cart. axis [-1,-1,-1]               
     3s_v     4    5    6
          inv. 180 deg rotation - cart. axis [1,-1,0]            

   Cartesian axes

     site n.     atom                  positions (alat units)
         1           C   tau(   1) = (   0.3750000   0.3750000   0.8750000  )
         2           C   tau(   2) = (   0.5000000   0.0000000   0.0000000  )
         3           C   tau(   3) = (   0.5000000   0.0000000   0.5000000  )
         4           C   tau(   4) = (   0.0000000   0.5000000   0.0000000  )
         5           C   tau(   5) = (   0.0000000   0.5000000   0.5000000  )
         6           C   tau(   6) = (   0.0000000   0.0000000   0.0000000  )
         7           C   tau(   7) = (   0.0000000   0.0000000   0.5000000  )
         8           C   tau(   8) = (   0.2500000   0.2500000   0.0000000  )
         9           C   tau(   9) = (   0.2500000   0.2500000   0.5000000  )
        10           C   tau(  10) = (   0.2500000   0.7500000   0.0000000  )
        11           C   tau(  11) = (   0.2500000   0.7500000   0.5000000  )
        12           C   tau(  12) = (   0.7500000   0.2500000   0.0000000  )
        13           C   tau(  13) = (   0.7500000   0.2500000   0.5000000  )
        14           C   tau(  14) = (   0.7500000   0.7500000   0.0000000  )
        15           C   tau(  15) = (   0.5000000   0.5000000   0.0000000  )
        16           C   tau(  16) = (   0.7500000   0.7500000   0.5000000  )
        17           C   tau(  17) = (   0.5000000   0.2500000   0.7500000  )
        18           C   tau(  18) = (   0.5000000   0.7500000   0.2500000  )
        19           C   tau(  19) = (   0.5000000   0.7500000   0.7500000  )
        20           C   tau(  20) = (   0.0000000   0.2500000   0.2500000  )
        21           C   tau(  21) = (   0.0000000   0.2500000   0.7500000  )
        22           C   tau(  22) = (   0.0000000   0.7500000   0.2500000  )
        23           C   tau(  23) = (   0.0000000   0.7500000   0.7500000  )
        24           C   tau(  24) = (   0.2500000   0.5000000   0.2500000  )
        25           C   tau(  25) = (   0.2500000   0.5000000   0.7500000  )
        26           C   tau(  26) = (   0.2500000   0.0000000   0.2500000  )
        27           C   tau(  27) = (   0.2500000   0.0000000   0.7500000  )
        28           C   tau(  28) = (   0.7500000   0.5000000   0.2500000  )
        29           C   tau(  29) = (   0.7500000   0.5000000   0.7500000  )
        30           C   tau(  30) = (   0.5000000   0.2500000   0.2500000  )
        31           C   tau(  31) = (   0.7500000   0.0000000   0.2500000  )
        32           C   tau(  32) = (   0.6250000   0.8750000   0.6250000  )
        33           C   tau(  33) = (   0.6250000   0.3750000   0.6250000  )
        34           C   tau(  34) = (   0.3750000   0.8750000   0.8750000  )
        35           C   tau(  35) = (   0.3750000   0.8750000   0.3750000  )
        36           C   tau(  36) = (   0.8750000   0.3750000   0.8750000  )
        37           C   tau(  37) = (   0.8750000   0.3750000   0.3750000  )
        38           C   tau(  38) = (   0.8750000   0.8750000   0.8750000  )
        39           C   tau(  39) = (   0.8750000   0.8750000   0.3750000  )
        40           C   tau(  40) = (   0.1250000   0.1250000   0.8750000  )
        41           C   tau(  41) = (   0.1250000   0.1250000   0.3750000  )
        42           C   tau(  42) = (   0.1250000   0.6250000   0.8750000  )
        43           C   tau(  43) = (   0.1250000   0.6250000   0.3750000  )
        44           C   tau(  44) = (   0.6250000   0.1250000   0.8750000  )
        45           C   tau(  45) = (   0.6250000   0.1250000   0.3750000  )
        46           C   tau(  46) = (   0.6250000   0.8750000   0.1250000  )
        47           C   tau(  47) = (   0.6250000   0.6250000   0.8750000  )
        48           C   tau(  48) = (   0.3750000   0.1250000   0.1250000  )
        49           C   tau(  49) = (   0.3750000   0.1250000   0.6250000  )
        50           C   tau(  50) = (   0.3750000   0.6250000   0.1250000  )
        51           C   tau(  51) = (   0.3750000   0.6250000   0.6250000  )
        52           C   tau(  52) = (   0.8750000   0.1250000   0.1250000  )
        53           C   tau(  53) = (   0.8750000   0.1250000   0.6250000  )
        54           C   tau(  54) = (   0.8750000   0.6250000   0.1250000  )
        55           C   tau(  55) = (   0.8750000   0.6250000   0.6250000  )
        56           C   tau(  56) = (   0.1250000   0.3750000   0.1250000  )
        57           C   tau(  57) = (   0.1250000   0.3750000   0.6250000  )
        58           C   tau(  58) = (   0.1250000   0.8750000   0.1250000  )
        59           C   tau(  59) = (   0.1250000   0.8750000   0.6250000  )
        60           C   tau(  60) = (   0.6250000   0.3750000   0.1250000  )
        61           C   tau(  61) = (   0.6250000   0.6250000   0.3750000  )
        62           C   tau(  62) = (   0.7500000   0.0000000   0.7500000  )
        63           N   tau(  63) = (   0.3750000   0.3750000   0.3750000  )

   Crystallographic axes

     site n.     atom                  positions (cryst. coord.)
         1           C   tau(   1) = (  0.3750000  0.3750000  0.8750000  )
         2           C   tau(   2) = (  0.5000000  0.0000000  0.0000000  )
         3           C   tau(   3) = (  0.5000000  0.0000000  0.5000000  )
         4           C   tau(   4) = (  0.0000000  0.5000000  0.0000000  )
         5           C   tau(   5) = (  0.0000000  0.5000000  0.5000000  )
         6           C   tau(   6) = (  0.0000000  0.0000000  0.0000000  )
         7           C   tau(   7) = (  0.0000000  0.0000000  0.5000000  )
         8           C   tau(   8) = (  0.2500000  0.2500000  0.0000000  )
         9           C   tau(   9) = (  0.2500000  0.2500000  0.5000000  )
        10           C   tau(  10) = (  0.2500000  0.7500000  0.0000000  )
        11           C   tau(  11) = (  0.2500000  0.7500000  0.5000000  )
        12           C   tau(  12) = (  0.7500000  0.2500000  0.0000000  )
        13           C   tau(  13) = (  0.7500000  0.2500000  0.5000000  )
        14           C   tau(  14) = (  0.7500000  0.7500000  0.0000000  )
        15           C   tau(  15) = (  0.5000000  0.5000000  0.0000000  )
        16           C   tau(  16) = (  0.7500000  0.7500000  0.5000000  )
        17           C   tau(  17) = (  0.5000000  0.2500000  0.7500000  )
        18           C   tau(  18) = (  0.5000000  0.7500000  0.2500000  )
        19           C   tau(  19) = (  0.5000000  0.7500000  0.7500000  )
        20           C   tau(  20) = (  0.0000000  0.2500000  0.2500000  )
        21           C   tau(  21) = (  0.0000000  0.2500000  0.7500000  )
        22           C   tau(  22) = (  0.0000000  0.7500000  0.2500000  )
        23           C   tau(  23) = (  0.0000000  0.7500000  0.7500000  )
        24           C   tau(  24) = (  0.2500000  0.5000000  0.2500000  )
        25           C   tau(  25) = (  0.2500000  0.5000000  0.7500000  )
        26           C   tau(  26) = (  0.2500000  0.0000000  0.2500000  )
        27           C   tau(  27) = (  0.2500000  0.0000000  0.7500000  )
        28           C   tau(  28) = (  0.7500000  0.5000000  0.2500000  )
        29           C   tau(  29) = (  0.7500000  0.5000000  0.7500000  )
        30           C   tau(  30) = (  0.5000000  0.2500000  0.2500000  )
        31           C   tau(  31) = (  0.7500000  0.0000000  0.2500000  )
        32           C   tau(  32) = (  0.6250000  0.8750000  0.6250000  )
        33           C   tau(  33) = (  0.6250000  0.3750000  0.6250000  )
        34           C   tau(  34) = (  0.3750000  0.8750000  0.8750000  )
        35           C   tau(  35) = (  0.3750000  0.8750000  0.3750000  )
        36           C   tau(  36) = (  0.8750000  0.3750000  0.8750000  )
        37           C   tau(  37) = (  0.8750000  0.3750000  0.3750000  )
        38           C   tau(  38) = (  0.8750000  0.8750000  0.8750000  )
        39           C   tau(  39) = (  0.8750000  0.8750000  0.3750000  )
        40           C   tau(  40) = (  0.1250000  0.1250000  0.8750000  )
        41           C   tau(  41) = (  0.1250000  0.1250000  0.3750000  )
        42           C   tau(  42) = (  0.1250000  0.6250000  0.8750000  )
        43           C   tau(  43) = (  0.1250000  0.6250000  0.3750000  )
        44           C   tau(  44) = (  0.6250000  0.1250000  0.8750000  )
        45           C   tau(  45) = (  0.6250000  0.1250000  0.3750000  )
        46           C   tau(  46) = (  0.6250000  0.8750000  0.1250000  )
        47           C   tau(  47) = (  0.6250000  0.6250000  0.8750000  )
        48           C   tau(  48) = (  0.3750000  0.1250000  0.1250000  )
        49           C   tau(  49) = (  0.3750000  0.1250000  0.6250000  )
        50           C   tau(  50) = (  0.3750000  0.6250000  0.1250000  )
        51           C   tau(  51) = (  0.3750000  0.6250000  0.6250000  )
        52           C   tau(  52) = (  0.8750000  0.1250000  0.1250000  )
        53           C   tau(  53) = (  0.8750000  0.1250000  0.6250000  )
        54           C   tau(  54) = (  0.8750000  0.6250000  0.1250000  )
        55           C   tau(  55) = (  0.8750000  0.6250000  0.6250000  )
        56           C   tau(  56) = (  0.1250000  0.3750000  0.1250000  )
        57           C   tau(  57) = (  0.1250000  0.3750000  0.6250000  )
        58           C   tau(  58) = (  0.1250000  0.8750000  0.1250000  )
        59           C   tau(  59) = (  0.1250000  0.8750000  0.6250000  )
        60           C   tau(  60) = (  0.6250000  0.3750000  0.1250000  )
        61           C   tau(  61) = (  0.6250000  0.6250000  0.3750000  )
        62           C   tau(  62) = (  0.7500000  0.0000000  0.7500000  )
        63           N   tau(  63) = (  0.3750000  0.3750000  0.3750000  )

     number of k points=     6
                       cart. coord. in units 2pi/alat
        k(    1) = (   0.0000000   0.0000000   0.0000000), wk =   0.0370370
        k(    2) = (   0.0000000   0.0000000   0.3333333), wk =   0.2222222
        k(    3) = (   0.0000000   0.3333333   0.3333333), wk =   0.2222222
        k(    4) = (   0.3333333   0.3333333   0.3333333), wk =   0.0740741
        k(    5) = (  -0.3333333   0.0000000   0.3333333), wk =   0.2222222
        k(    6) = (   0.3333333  -0.3333333   0.3333333), wk =   0.2222222

                       cryst. coord.
        k(    1) = (   0.0000000   0.0000000   0.0000000), wk =   0.0370370
        k(    2) = (   0.0000000   0.0000000   0.3333333), wk =   0.2222222
        k(    3) = (   0.0000000   0.3333333   0.3333333), wk =   0.2222222
        k(    4) = (   0.3333333   0.3333333   0.3333333), wk =   0.0740741
        k(    5) = (  -0.3333333   0.0000000   0.3333333), wk =   0.2222222
        k(    6) = (   0.3333333  -0.3333333   0.3333333), wk =   0.2222222

     Dense  grid:   194039 G-vectors     FFT dimensions: (  72,  72,  72)

     Occupations read from input 

      Spin-up

        1.0000   1.0000   1.0000   1.0000   1.0000   1.0000   1.0000   1.0000
        1.0000   1.0000   1.0000   1.0000   1.0000   1.0000   1.0000   1.0000
        1.0000   1.0000   1.0000   1.0000   1.0000   1.0000   1.0000   1.0000
        1.0000   1.0000   1.0000   1.0000   1.0000   1.0000   1.0000   1.0000
        1.0000   1.0000   1.0000   1.0000   1.0000   1.0000   1.0000   1.0000
        1.0000   1.0000   1.0000   1.0000   1.0000   1.0000   1.0000   1.0000
        1.0000   1.0000   1.0000   1.0000   1.0000   1.0000   1.0000   1.0000
        1.0000   1.0000   1.0000   1.0000   1.0000   1.0000   1.0000   1.0000
        1.0000   1.0000   1.0000   1.0000   1.0000   1.0000   1.0000   1.0000
        1.0000   1.0000   1.0000   1.0000   1.0000   1.0000   1.0000   1.0000
        1.0000   1.0000   1.0000   1.0000   1.0000   1.0000   1.0000   1.0000
        1.0000   1.0000   1.0000   1.0000   1.0000   1.0000   1.0000   1.0000
        1.0000   1.0000   1.0000   1.0000   1.0000   1.0000   1.0000   1.0000
        1.0000   1.0000   1.0000   1.0000   1.0000   1.0000   1.0000   1.0000
        1.0000   1.0000   1.0000   1.0000   1.0000   1.0000   1.0000   1.0000
        1.0000   1.0000   1.0000   1.0000   1.0000   1.0000   1.0000   1.0000
        0.0000   0.0000   0.0000   0.0000   0.0000   0.0000   0.0000   0.0000
        0.0000   0.0000   0.0000   0.0000   0.0000   0.0000   0.0000   0.0000
        0.0000   0.0000   0.0000   0.0000   0.0000   0.0000   0.0000   0.0000

      Spin-down

        1.0000   1.0000   1.0000   1.0000   1.0000   1.0000   1.0000   1.0000
        1.0000   1.0000   1.0000   1.0000   1.0000   1.0000   1.0000   1.0000
        1.0000   1.0000   1.0000   1.0000   1.0000   1.0000   1.0000   1.0000
        1.0000   1.0000   1.0000   1.0000   1.0000   1.0000   1.0000   1.0000
        1.0000   1.0000   1.0000   1.0000   1.0000   1.0000   1.0000   1.0000
        1.0000   1.0000   1.0000   1.0000   1.0000   1.0000   1.0000   1.0000
        1.0000   1.0000   1.0000   1.0000   1.0000   1.0000   1.0000   1.0000
        1.0000   1.0000   1.0000   1.0000   1.0000   1.0000   1.0000   1.0000
        1.0000   1.0000   1.0000   1.0000   1.0000   1.0000   1.0000   1.0000
        1.0000   1.0000   1.0000   1.0000   1.0000   1.0000   1.0000   1.0000
        1.0000   1.0000   1.0000   1.0000   1.0000   1.0000   1.0000   1.0000
        1.0000   1.0000   1.0000   1.0000   1.0000   1.0000   1.0000   1.0000
        1.0000   1.0000   1.0000   1.0000   1.0000   1.0000   1.0000   1.0000
        1.0000   1.0000   1.0000   1.0000   1.0000   1.0000   1.0000   1.0000
        1.0000   1.0000   1.0000   1.0000   1.0000   1.0000   1.0000   1.0000
        1.0000   1.0000   1.0000   1.0000   1.0000   0.0000   1.0000   0.0000
        0.0000   0.0000   0.0000   0.0000   0.0000   0.0000   0.0000   0.0000
        0.0000   0.0000   0.0000   0.0000   0.0000   0.0000   0.0000   0.0000
        0.0000   0.0000   0.0000   0.0000   0.0000   0.0000   0.0000   0.0000

     Estimated max dynamical RAM per process >      51.77MB

     Estimated total allocated dynamical RAM >    4970.31MB
     Generating pointlists ...
     new r_m :   0.0893 (alat units)  1.2044 (a.u.) for type    1
     new r_m :   0.0893 (alat units)  1.2044 (a.u.) for type    2

     Initial potential from superposition of free atoms

     starting charge  252.99722, renormalised to  254.00000
     Starting wfc are  252 randomized atomic wfcs

     total cpu time spent up to now is        3.9 secs

     per-process dynamical memory:    60.4 Mb

     Self-consistent Calculation

     iteration #  1     ecut=    70.00 Ry     beta=0.50
     Davidson diagonalization with overlap
     ethr =  1.00E-02,  avg # of iterations =  3.0

     total cpu time spent up to now is        6.4 secs

     total energy              =    -722.39760028 Ry
     Harris-Foulkes estimate   =    -717.45746533 Ry
     estimated scf accuracy    <       6.57092349 Ry

     total magnetization       =     2.00 Bohr mag/cell
     absolute magnetization    =     3.69 Bohr mag/cell

     iteration #  2     ecut=    70.00 Ry     beta=0.50
     Davidson diagonalization with overlap
     ethr =  2.59E-03,  avg # of iterations =  2.0

     total cpu time spent up to now is        7.7 secs

     total energy              =    -724.19019493 Ry
     Harris-Foulkes estimate   =    -722.76454708 Ry
     estimated scf accuracy    <       1.46133719 Ry

     total magnetization       =     2.00 Bohr mag/cell
     absolute magnetization    =     2.50 Bohr mag/cell

     iteration #  3     ecut=    70.00 Ry     beta=0.50
     Davidson diagonalization with overlap
     ethr =  5.75E-04,  avg # of iterations =  7.2

     total cpu time spent up to now is       11.4 secs

     total energy              =    -724.47064839 Ry
     Harris-Foulkes estimate   =    -724.50954562 Ry
     estimated scf accuracy    <       0.71361411 Ry

     total magnetization       =     2.00 Bohr mag/cell
     absolute magnetization    =     2.13 Bohr mag/cell

     iteration #  4     ecut=    70.00 Ry     beta=0.50
     Davidson diagonalization with overlap
     ethr =  2.81E-04,  avg # of iterations =  6.5

     total cpu time spent up to now is       14.2 secs

     total energy              =    -724.61079114 Ry
     Harris-Foulkes estimate   =    -724.59931301 Ry
     estimated scf accuracy    <       0.02274372 Ry

     total magnetization       =     2.00 Bohr mag/cell
     absolute magnetization    =     2.11 Bohr mag/cell

     iteration #  5     ecut=    70.00 Ry     beta=0.50
     Davidson diagonalization with overlap
     ethr =  8.95E-06,  avg # of iterations = 11.2

     total cpu time spent up to now is       21.8 secs

     total energy              =    -724.61804565 Ry
     Harris-Foulkes estimate   =    -724.61776696 Ry
     estimated scf accuracy    <       0.00574579 Ry

     total magnetization       =     2.00 Bohr mag/cell
     absolute magnetization    =     2.10 Bohr mag/cell

     iteration #  6     ecut=    70.00 Ry     beta=0.50
     Davidson diagonalization with overlap
     ethr =  2.26E-06,  avg # of iterations =  7.8

     total cpu time spent up to now is       26.0 secs

     total energy              =    -724.61912514 Ry
     Harris-Foulkes estimate   =    -724.61925085 Ry
     estimated scf accuracy    <       0.00057742 Ry

     total magnetization       =     2.00 Bohr mag/cell
     absolute magnetization    =     2.11 Bohr mag/cell

     iteration #  7     ecut=    70.00 Ry     beta=0.50
     Davidson diagonalization with overlap
     ethr =  2.27E-07,  avg # of iterations =  3.5

     total cpu time spent up to now is       28.2 secs

     total energy              =    -724.61930692 Ry
     Harris-Foulkes estimate   =    -724.61929130 Ry
     estimated scf accuracy    <       0.00008054 Ry

     total magnetization       =     2.00 Bohr mag/cell
     absolute magnetization    =     2.11 Bohr mag/cell

     iteration #  8     ecut=    70.00 Ry     beta=0.50
     Davidson diagonalization with overlap
     ethr =  3.17E-08,  avg # of iterations =  3.0

     total cpu time spent up to now is       30.2 secs

     total energy              =    -724.61934606 Ry
     Harris-Foulkes estimate   =    -724.61933028 Ry
     estimated scf accuracy    <       0.00001410 Ry

     total magnetization       =     2.00 Bohr mag/cell
     absolute magnetization    =     2.12 Bohr mag/cell

     iteration #  9     ecut=    70.00 Ry     beta=0.50
     Davidson diagonalization with overlap
     ethr =  5.55E-09,  avg # of iterations =  4.0

     total cpu time spent up to now is       32.4 secs

     total energy              =    -724.61935681 Ry
     Harris-Foulkes estimate   =    -724.61934965 Ry
     estimated scf accuracy    <       0.00000405 Ry

     total magnetization       =     2.00 Bohr mag/cell
     absolute magnetization    =     2.12 Bohr mag/cell

     iteration # 10     ecut=    70.00 Ry     beta=0.50
     Davidson diagonalization with overlap
     ethr =  1.60E-09,  avg # of iterations =  4.8
 
     Magnetic moment per site:
     atom:    1    charge:    2.0252    magn:    0.0050    constr:    0.0000
     atom:    2    charge:    2.0275    magn:    0.0075    constr:    0.0000
     atom:    3    charge:    2.0242    magn:   -0.0008    constr:    0.0000
     atom:    4    charge:    2.0275    magn:    0.0075    constr:    0.0000
     atom:    5    charge:    2.0242    magn:   -0.0008    constr:    0.0000
     atom:    6    charge:    2.0263    magn:    0.0004    constr:    0.0000
     atom:    7    charge:    2.0275    magn:    0.0075    constr:    0.0000
     atom:    8    charge:    2.0271    magn:   -0.0006    constr:    0.0000
     atom:    9    charge:    1.9817    magn:    0.0020    constr:    0.0000
     atom:   10    charge:    2.0252    magn:   -0.0009    constr:    0.0000
     atom:   11    charge:    2.0169    magn:    0.0001    constr:    0.0000
     atom:   12    charge:    2.0252    magn:   -0.0009    constr:    0.0000
     atom:   13    charge:    2.0169    magn:    0.0001    constr:    0.0000
     atom:   14    charge:    2.0263    magn:   -0.0007    constr:    0.0000
     atom:   15    charge:    2.0242    magn:   -0.0008    constr:    0.0000
     atom:   16    charge:    2.0149    magn:    0.0070    constr:    0.0000
     atom:   17    charge:    2.0169    magn:    0.0001    constr:    0.0000
     atom:   18    charge:    2.0169    magn:    0.0001    constr:    0.0000
     atom:   19    charge:    2.0149    magn:    0.0070    constr:    0.0000
     atom:   20    charge:    2.0271    magn:   -0.0006    constr:    0.0000
     atom:   21    charge:    2.0252    magn:   -0.0009    constr:    0.0000
     atom:   22    charge:    2.0252    magn:   -0.0009    constr:    0.0000
     atom:   23    charge:    2.0263    magn:   -0.0007    constr:    0.0000
     atom:   24    charge:    1.9817    magn:    0.0020    constr:    0.0000
     atom:   25    charge:    2.0169    magn:    0.0001    constr:    0.0000
     atom:   26    charge:    2.0271    magn:   -0.0006    constr:    0.0000
     atom:   27    charge:    2.0252    magn:   -0.0009    constr:    0.0000
     atom:   28    charge:    2.0169    magn:    0.0001    constr:    0.0000
     atom:   29    charge:    2.0149    magn:    0.0070    constr:    0.0000
     atom:   30    charge:    1.9817    magn:    0.0020    constr:    0.0000
     atom:   31    charge:    2.0252    magn:   -0.0009    constr:    0.0000
     atom:   32    charge:    2.0243    magn:    0.0041    constr:    0.0000
     atom:   33    charge:    1.9685    magn:    0.2171    constr:    0.0000
     atom:   34    charge:    2.0254    magn:    0.0141    constr:    0.0000
     atom:   35    charge:    2.0252    magn:    0.0050    constr:    0.0000
     atom:   36    charge:    2.0254    magn:    0.0141    constr:    0.0000
     atom:   37    charge:    2.0252    magn:    0.0050    constr:    0.0000
     atom:   38    charge:    2.0260    magn:    0.0042    constr:    0.0000
     atom:   39    charge:    2.0254    magn:    0.0141    constr:    0.0000
     atom:   40    charge:    2.0261    magn:    0.0036    constr:    0.0000
     atom:   41    charge:    2.0276    magn:    0.0106    constr:    0.0000
     atom:   42    charge:    2.0265    magn:    0.0140    constr:    0.0000
     atom:   43    charge:    2.0252    magn:    0.0037    constr:    0.0000
     atom:   44    charge:    2.0265    magn:    0.0140    constr:    0.0000
     atom:   45    charge:    2.0252    magn:    0.0037    constr:    0.0000
     atom:   46    charge:    2.0265    magn:    0.0140    constr:    0.0000
     atom:   47    charge:    2.0243    magn:    0.0041    constr:    0.0000
     atom:   48    charge:    2.0276    magn:    0.0106    constr:    0.0000
     atom:   49    charge:    2.0252    magn:    0.0037    constr:    0.0000
     atom:   50    charge:    2.0252    magn:    0.0037    constr:    0.0000
     atom:   51    charge:    1.9685    magn:    0.2171    constr:    0.0000
     atom:   52    charge:    2.0261    magn:    0.0036    constr:    0.0000
     atom:   53    charge:    2.0265    magn:    0.0140    constr:    0.0000
     atom:   54    charge:    2.0265    magn:    0.0140    constr:    0.0000
     atom:   55    charge:    2.0243    magn:    0.0041    constr:    0.0000
     atom:   56    charge:    2.0276    magn:    0.0106    constr:    0.0000
     atom:   57    charge:    2.0252    magn:    0.0037    constr:    0.0000
     atom:   58    charge:    2.0261    magn:    0.0036    constr:    0.0000
     atom:   59    charge:    2.0265    magn:    0.0140    constr:    0.0000
     atom:   60    charge:    2.0252    magn:    0.0037    constr:    0.0000
     atom:   61    charge:    1.9685    magn:    0.2171    constr:    0.0000
     atom:   62    charge:    2.0263    magn:   -0.0007    constr:    0.0000
     atom:   63    charge:    3.0292    magn:    0.1884    constr:    0.0000

     total cpu time spent up to now is       35.4 secs

     End of self-consistent calculation

 ------ SPIN UP ------------


          k = 0.0000 0.0000 0.0000 ( 24207 PWs)   bands (ev):

    -8.5484  -6.8849  -6.2727  -6.2727  -6.1508  -6.1508  -5.8871  -4.8931
    -4.1467  -4.1467  -4.0845  -4.0845  -4.0391  -3.9975  -3.9975  -3.9854
    -3.7717  -3.7717  -3.3696  -2.9707  -2.6127  -2.6127  -1.9555  -0.3919
    -0.3642  -0.3642  -0.3089  -0.0592   0.1888   0.1888   0.2532   0.2532
     0.3356   0.5753   0.8702   0.8702   0.9382   0.9677   0.9677   1.0689
     1.0689   1.0968   1.4884   1.4884   2.9047   4.0102   4.0310   4.0310
     4.2084   4.2084   4.2294   4.2461   4.3047   4.3047   4.4174   4.4174
     4.4697   4.4697   4.5774   4.6198   4.6198   4.6616   4.7395   4.7481
     4.7481   4.8233   4.8451   4.8451   5.1177   5.2771   5.2771   5.3246
     5.3246   5.3273   5.3582   5.5297   5.5297   5.9748   5.9748   5.9781
     6.6137   6.6137   6.7171   6.9227   7.0861   7.0861   7.2444   8.3139
     8.3139   8.3789   8.4933   8.4933   8.6487   8.6487   8.7679   8.7679
     8.8054   8.8530   8.9367   8.9529   8.9529   9.2432   9.2432   9.2972
     9.8185   9.8185   9.8442   9.8442   9.8491   9.8776   9.9102   9.9102
     9.9210   9.9438   9.9438  10.0069  10.0210  10.1215  10.1215  10.4152
    10.4352  10.4352  12.0579  12.4351  12.4351  13.4519  15.0693  15.0693
    17.0203  17.3389  17.3389  17.4628  17.4658  17.4658  17.6891  17.8565
    17.8565  17.9487  17.9487  18.2675  18.6839  18.6839  18.8223  20.3027
    20.6943  20.6943  20.8475  20.8476  20.8560  20.9235  20.9235  20.9523

     occupation numbers 
     1.0000   1.0000   1.0000   1.0000   1.0000   1.0000   1.0000   1.0000
     1.0000   1.0000   1.0000   1.0000   1.0000   1.0000   1.0000   1.0000
     1.0000   1.0000   1.0000   1.0000   1.0000   1.0000   1.0000   1.0000
     1.0000   1.0000   1.0000   1.0000   1.0000   1.0000   1.0000   1.0000
     1.0000   1.0000   1.0000   1.0000   1.0000   1.0000   1.0000   1.0000
     1.0000   1.0000   1.0000   1.0000   1.0000   1.0000   1.0000   1.0000
     1.0000   1.0000   1.0000   1.0000   1.0000   1.0000   1.0000   1.0000
     1.0000   1.0000   1.0000   1.0000   1.0000   1.0000   1.0000   1.0000
     1.0000   1.0000   1.0000   1.0000   1.0000   1.0000   1.0000   1.0000
     1.0000   1.0000   1.0000   1.0000   1.0000   1.0000   1.0000   1.0000
     1.0000   1.0000   1.0000   1.0000   1.0000   1.0000   1.0000   1.0000
     1.0000   1.0000   1.0000   1.0000   1.0000   1.0000   1.0000   1.0000
     1.0000   1.0000   1.0000   1.0000   1.0000   1.0000   1.0000   1.0000
     1.0000   1.0000   1.0000   1.0000   1.0000   1.0000   1.0000   1.0000
     1.0000   1.0000   1.0000   1.0000   1.0000   1.0000   1.0000   1.0000
     1.0000   1.0000   1.0000   1.0000   1.0000   1.0000   1.0000   1.0000
     0.0000   0.0000   0.0000   0.0000   0.0000   0.0000   0.0000   0.0000
     0.0000   0.0000   0.0000   0.0000   0.0000   0.0000   0.0000   0.0000
     0.0000   0.0000   0.0000   0.0000   0.0000   0.0000   0.0000   0.0000

          k = 0.0000 0.0000 0.3333 ( 24280 PWs)   bands (ev):

    -8.3181  -7.5341  -6.4991  -6.0314  -5.9231  -5.8222  -5.4795  -5.2775
    -5.1188  -4.9497  -4.5041  -4.1145  -3.7911  -3.7863  -3.6567  -3.4413
    -3.1530  -3.1001  -2.8885  -2.5727  -2.4917  -2.3261  -2.2598  -1.7529
    -0.7928  -0.6793  -0.5425  -0.3014   0.1880   0.2782   0.3486   0.4157
     0.5039   0.5956   0.6023   0.6731   0.7531   0.7882   1.0702   1.4824
     2.0018   2.0511   2.2040   2.2557   2.4419   2.5233   2.5299   2.7372
     2.9926   3.0350   3.2304   3.2327   3.9278   3.9653   4.0757   4.0861
     4.2971   4.3437   4.5301   4.5560   4.9570   5.1320   5.1422   5.2218
     5.2379   5.6267   5.6444   5.7920   5.8177   6.0868   6.0969   6.2009
     6.2116   6.3552   6.3824   6.4795   6.5119   6.5435   6.6866   6.7450
     6.7951   6.9120   6.9971   7.0323   7.1774   7.1883   7.2642   7.3060
     7.4142   7.4988   7.7135   7.7734   7.8931   8.1246   8.1482   8.3407
     8.3816   8.4777   8.6407   8.7489   8.7584   8.9296   9.2648   9.3658
     9.3816   9.6631   9.6761   9.7745   9.8692   9.8776   9.8829   9.9227
     9.9442  10.0594  10.0677  10.1444  10.2997  10.3188  10.3991  10.4053
    10.5049  10.8010  11.6988  11.7509  11.9368  13.0161  14.7539  14.8389
    17.0796  17.2619  17.8660  18.1618  18.3476  18.4598  18.4709  18.5168
    18.7006  18.8244  18.9371  18.9989  19.1488  19.6750  19.7651  20.2572
    20.6020  20.6245  20.7573  20.7831  20.8395  20.8451  20.9330  20.9343

     occupation numbers 
     1.0000   1.0000   1.0000   1.0000   1.0000   1.0000   1.0000   1.0000
     1.0000   1.0000   1.0000   1.0000   1.0000   1.0000   1.0000   1.0000
     1.0000   1.0000   1.0000   1.0000   1.0000   1.0000   1.0000   1.0000
     1.0000   1.0000   1.0000   1.0000   1.0000   1.0000   1.0000   1.0000
     1.0000   1.0000   1.0000   1.0000   1.0000   1.0000   1.0000   1.0000
     1.0000   1.0000   1.0000   1.0000   1.0000   1.0000   1.0000   1.0000
     1.0000   1.0000   1.0000   1.0000   1.0000   1.0000   1.0000   1.0000
     1.0000   1.0000   1.0000   1.0000   1.0000   1.0000   1.0000   1.0000
     1.0000   1.0000   1.0000   1.0000   1.0000   1.0000   1.0000   1.0000
     1.0000   1.0000   1.0000   1.0000   1.0000   1.0000   1.0000   1.0000
     1.0000   1.0000   1.0000   1.0000   1.0000   1.0000   1.0000   1.0000
     1.0000   1.0000   1.0000   1.0000   1.0000   1.0000   1.0000   1.0000
     1.0000   1.0000   1.0000   1.0000   1.0000   1.0000   1.0000   1.0000
     1.0000   1.0000   1.0000   1.0000   1.0000   1.0000   1.0000   1.0000
     1.0000   1.0000   1.0000   1.0000   1.0000   1.0000   1.0000   1.0000
     1.0000   1.0000   1.0000   1.0000   1.0000   1.0000   1.0000   1.0000
     0.0000   0.0000   0.0000   0.0000   0.0000   0.0000   0.0000   0.0000
     0.0000   0.0000   0.0000   0.0000   0.0000   0.0000   0.0000   0.0000
     0.0000   0.0000   0.0000   0.0000   0.0000   0.0000   0.0000   0.0000

          k = 0.0000 0.3333 0.3333 ( 24236 PWs)   bands (ev):

    -8.1000  -7.3520  -7.2146  -6.5438  -5.9199  -5.6573  -5.3100  -5.0099
    -4.9547  -4.8542  -4.4536  -4.2434  -4.1874  -3.8822  -3.5096  -3.4913
    -2.7507  -2.3945  -2.3219  -2.3043  -2.1675  -2.1496  -1.9751  -1.8633
    -1.4487  -1.2795  -1.0567  -0.8440  -0.4762  -0.0225   0.0950   0.1672
     0.2199   0.4765   0.7188   1.2111   1.2216   1.3372   1.4064   1.4109
     1.4950   1.5344   1.9445   2.0611   2.1855   2.4184   2.7451   2.8548
     3.0567   3.4728   3.6792   3.7039   3.8164   3.8979   3.9419   4.0979
     4.1356   4.4954   4.6597   4.8338   5.0797   5.1066   5.1773   5.3635
     5.3695   5.5914   5.6463   5.6887   5.8499   6.0336   6.0539   6.0907
     6.1459   6.2515   6.3351   6.4973   6.5274   6.6011   6.6446   6.8989
     6.9460   7.0258   7.0436   7.0868   7.2434   7.2971   7.5406   7.6422
     7.9130   7.9598   8.0412   8.0813   8.1382   8.2774   8.2993   8.3626
     8.4215   8.5329   8.5704   8.6766   8.7180   8.8048   8.9047   8.9318
     9.1123   9.1807   9.2540   9.2749   9.4697   9.5253   9.6315   9.6887
     9.7946   9.8300   9.9502  10.0532  10.0771  10.2204  10.3361  10.6343
    10.9773  11.2171  11.3630  11.6370  12.2349  12.7795  14.6136  14.9606
    17.7978  18.1898  18.2019  18.2830  18.3198  18.7289  18.8652  18.8706
    19.0964  19.1131  19.4377  19.4880  19.5941  19.8180  19.8979  19.9097
    20.1238  20.3909  20.4916  20.5403  20.5497  20.5584  20.5942  20.6716

     occupation numbers 
     1.0000   1.0000   1.0000   1.0000   1.0000   1.0000   1.0000   1.0000
     1.0000   1.0000   1.0000   1.0000   1.0000   1.0000   1.0000   1.0000
     1.0000   1.0000   1.0000   1.0000   1.0000   1.0000   1.0000   1.0000
     1.0000   1.0000   1.0000   1.0000   1.0000   1.0000   1.0000   1.0000
     1.0000   1.0000   1.0000   1.0000   1.0000   1.0000   1.0000   1.0000
     1.0000   1.0000   1.0000   1.0000   1.0000   1.0000   1.0000   1.0000
     1.0000   1.0000   1.0000   1.0000   1.0000   1.0000   1.0000   1.0000
     1.0000   1.0000   1.0000   1.0000   1.0000   1.0000   1.0000   1.0000
     1.0000   1.0000   1.0000   1.0000   1.0000   1.0000   1.0000   1.0000
     1.0000   1.0000   1.0000   1.0000   1.0000   1.0000   1.0000   1.0000
     1.0000   1.0000   1.0000   1.0000   1.0000   1.0000   1.0000   1.0000
     1.0000   1.0000   1.0000   1.0000   1.0000   1.0000   1.0000   1.0000
     1.0000   1.0000   1.0000   1.0000   1.0000   1.0000   1.0000   1.0000
     1.0000   1.0000   1.0000   1.0000   1.0000   1.0000   1.0000   1.0000
     1.0000   1.0000   1.0000   1.0000   1.0000   1.0000   1.0000   1.0000
     1.0000   1.0000   1.0000   1.0000   1.0000   1.0000   1.0000   1.0000
     0.0000   0.0000   0.0000   0.0000   0.0000   0.0000   0.0000   0.0000
     0.0000   0.0000   0.0000   0.0000   0.0000   0.0000   0.0000   0.0000
     0.0000   0.0000   0.0000   0.0000   0.0000   0.0000   0.0000   0.0000

          k = 0.3333 0.3333 0.3333 ( 24303 PWs)   bands (ev):

    -7.8981  -7.1758  -6.9724  -6.9724  -6.2900  -6.1920  -6.1920  -5.3998
    -4.1289  -4.0292  -4.0292  -3.5462  -3.3635  -3.3635  -3.3380  -3.2710
    -3.2710  -2.8996  -2.5980  -2.5980  -1.9387  -1.9217  -1.9217  -1.5651
    -1.4716  -1.4716  -1.3660  -1.3660  -1.3582  -1.0105  -1.0105   0.0781
     0.8977   0.8977   0.9717   1.0205   1.0205   1.2901   1.8824   1.8824
     1.8895   1.8919   2.0129   2.0129   2.5963   2.6302   2.6302   2.7457
     2.7457   2.7943   3.1723   3.1723   3.5871   4.0768   4.3460   4.3460
     4.7851   4.9343   4.9343   5.0069   5.0853   5.0853   5.1050   5.3627
     5.3627   5.4689   5.5383   5.5383   5.5954   5.5954   5.6137   6.3039
     6.8053   6.8053   6.9392   6.9562   6.9896   6.9896   7.1249   7.1249
     7.2314   7.2314   7.2421   7.2729   7.3110   7.3110   7.3973   7.4247
     7.4247   7.5252   7.7307   7.7307   7.9172   7.9172   7.9418   8.0164
     8.2479   8.2479   8.3370   8.3370   8.3728   8.4728   8.5514   8.5514
     8.7709   8.7709   8.7979   9.1259   9.1543   9.5733   9.5733   9.8578
     9.8578  10.1820  10.5231  10.5231  10.5502  10.8222  10.9783  10.9783
    11.3533  11.3724  11.3724  11.6853  11.6853  12.6880  14.9105  14.9105
    17.7531  18.2467  18.2467  18.4296  18.5896  18.5896  19.1326  19.3030
    19.3030  19.5795  19.5795  19.5950  19.5950  19.6324  19.6333  19.7138
    19.7138  19.8028  19.8906  19.8906  20.0408  20.0408  20.0562  20.1779

     occupation numbers 
     1.0000   1.0000   1.0000   1.0000   1.0000   1.0000   1.0000   1.0000
     1.0000   1.0000   1.0000   1.0000   1.0000   1.0000   1.0000   1.0000
     1.0000   1.0000   1.0000   1.0000   1.0000   1.0000   1.0000   1.0000
     1.0000   1.0000   1.0000   1.0000   1.0000   1.0000   1.0000   1.0000
     1.0000   1.0000   1.0000   1.0000   1.0000   1.0000   1.0000   1.0000
     1.0000   1.0000   1.0000   1.0000   1.0000   1.0000   1.0000   1.0000
     1.0000   1.0000   1.0000   1.0000   1.0000   1.0000   1.0000   1.0000
     1.0000   1.0000   1.0000   1.0000   1.0000   1.0000   1.0000   1.0000
     1.0000   1.0000   1.0000   1.0000   1.0000   1.0000   1.0000   1.0000
     1.0000   1.0000   1.0000   1.0000   1.0000   1.0000   1.0000   1.0000
     1.0000   1.0000   1.0000   1.0000   1.0000   1.0000   1.0000   1.0000
     1.0000   1.0000   1.0000   1.0000   1.0000   1.0000   1.0000   1.0000
     1.0000   1.0000   1.0000   1.0000   1.0000   1.0000   1.0000   1.0000
     1.0000   1.0000   1.0000   1.0000   1.0000   1.0000   1.0000   1.0000
     1.0000   1.0000   1.0000   1.0000   1.0000   1.0000   1.0000   1.0000
     1.0000   1.0000   1.0000   1.0000   1.0000   1.0000   1.0000   1.0000
     0.0000   0.0000   0.0000   0.0000   0.0000   0.0000   0.0000   0.0000
     0.0000   0.0000   0.0000   0.0000   0.0000   0.0000   0.0000   0.0000
     0.0000   0.0000   0.0000   0.0000   0.0000   0.0000   0.0000   0.0000

          k =-0.3333 0.0000 0.3333 ( 24236 PWs)   bands (ev):

    -8.0865  -7.4688  -7.1001  -6.5096  -5.9679  -5.6775  -5.3403  -5.0288
    -4.8975  -4.7268  -4.5215  -4.2691  -4.1623  -4.0402  -3.5601  -3.3243
    -2.7411  -2.3971  -2.3805  -2.2661  -2.1593  -2.1121  -2.0593  -1.6564
    -1.5201  -1.2947  -1.0929  -0.9020  -0.5365   0.0143   0.0695   0.1443
     0.3245   0.4999   0.9774   1.0463   1.2383   1.2561   1.2919   1.4092
     1.5020   1.6142   1.8558   1.9514   2.1366   2.5882   2.6695   2.8727
     3.0493   3.5369   3.6567   3.7005   3.7737   3.9807   4.0129   4.1998
     4.2644   4.3754   4.6543   4.7942   5.0000   5.0452   5.2182   5.2922
     5.4732   5.5314   5.6397   5.6835   5.8385   6.0425   6.0705   6.1273
     6.2150   6.2990   6.3683   6.4425   6.4743   6.6120   6.6179   6.8468
     6.9235   7.0083   7.0871   7.1159   7.2453   7.3838   7.5436   7.7297
     7.7902   7.8900   8.0276   8.0512   8.1891   8.2211   8.2567   8.3200
     8.4088   8.4879   8.5958   8.6233   8.7676   8.7928   8.9548   9.0084
     9.1121   9.2173   9.2858   9.3093   9.4450   9.4901   9.5652   9.7166
     9.7613   9.8387   9.9911  10.0540  10.1233  10.2203  10.3668  10.5951
    10.9243  11.1634  11.4072  11.5719  12.1888  13.0918  14.5931  14.8073
    17.8061  18.2026  18.2383  18.2630  18.3422  18.7489  18.9327  18.9879
    19.0478  19.2021  19.2664  19.4509  19.6223  19.7748  19.8690  19.9597
    20.1191  20.2405  20.3997  20.5057  20.5373  20.5994  20.6414  20.6847

     occupation numbers 
     1.0000   1.0000   1.0000   1.0000   1.0000   1.0000   1.0000   1.0000
     1.0000   1.0000   1.0000   1.0000   1.0000   1.0000   1.0000   1.0000
     1.0000   1.0000   1.0000   1.0000   1.0000   1.0000   1.0000   1.0000
     1.0000   1.0000   1.0000   1.0000   1.0000   1.0000   1.0000   1.0000
     1.0000   1.0000   1.0000   1.0000   1.0000   1.0000   1.0000   1.0000
     1.0000   1.0000   1.0000   1.0000   1.0000   1.0000   1.0000   1.0000
     1.0000   1.0000   1.0000   1.0000   1.0000   1.0000   1.0000   1.0000
     1.0000   1.0000   1.0000   1.0000   1.0000   1.0000   1.0000   1.0000
     1.0000   1.0000   1.0000   1.0000   1.0000   1.0000   1.0000   1.0000
     1.0000   1.0000   1.0000   1.0000   1.0000   1.0000   1.0000   1.0000
     1.0000   1.0000   1.0000   1.0000   1.0000   1.0000   1.0000   1.0000
     1.0000   1.0000   1.0000   1.0000   1.0000   1.0000   1.0000   1.0000
     1.0000   1.0000   1.0000   1.0000   1.0000   1.0000   1.0000   1.0000
     1.0000   1.0000   1.0000   1.0000   1.0000   1.0000   1.0000   1.0000
     1.0000   1.0000   1.0000   1.0000   1.0000   1.0000   1.0000   1.0000
     1.0000   1.0000   1.0000   1.0000   1.0000   1.0000   1.0000   1.0000
     0.0000   0.0000   0.0000   0.0000   0.0000   0.0000   0.0000   0.0000
     0.0000   0.0000   0.0000   0.0000   0.0000   0.0000   0.0000   0.0000
     0.0000   0.0000   0.0000   0.0000   0.0000   0.0000   0.0000   0.0000

          k = 0.3333-0.3333 0.3333 ( 24303 PWs)   bands (ev):

    -7.8712  -7.3200  -6.9733  -6.8332  -6.4412  -6.1892  -5.9558  -5.4351
    -4.4299  -4.0398  -3.9528  -3.6601  -3.4249  -3.3556  -3.3329  -3.1546
    -3.0684  -2.8805  -2.6310  -2.3299  -2.0420  -1.8877  -1.8295  -1.7137
    -1.4945  -1.4794  -1.4132  -1.3433  -1.3200  -1.1320  -0.9811  -0.0568
     0.7715   0.9031   0.9644   1.0258   1.1121   1.3932   1.7837   1.7876
     1.8924   1.9499   2.0590   2.2690   2.5707   2.6389   2.7323   2.7591
     2.7855   2.8309   2.9471   3.2101   3.5432   3.9638   4.2528   4.3531
     4.8302   4.8548   4.8825   5.0109   5.0202   5.0576   5.1806   5.2657
     5.3544   5.4455   5.4694   5.5894   5.6427   5.8063   5.8974   6.4451
     6.7102   6.8145   6.9237   6.9387   6.9606   7.0439   7.0991   7.1085
     7.2030   7.2310   7.2379   7.2628   7.3516   7.3678   7.3984   7.4164
     7.4310   7.5082   7.7613   7.7660   7.8628   7.9198   7.9442   7.9906
     8.1421   8.1778   8.3165   8.3576   8.3880   8.4012   8.4384   8.6283
     8.7130   8.8053   8.9621   9.0237   9.0772   9.5563   9.6181   9.6424
     9.9553  10.2338  10.4234  10.5794  10.6023  10.7582  10.9515  11.0805
    11.2799  11.2812  11.3727  11.7794  11.7926  13.0324  14.6319  14.9033
    17.8373  18.2786  18.2935  18.4389  18.5921  18.7118  19.0326  19.2912
    19.4187  19.4954  19.5498  19.5816  19.5957  19.6355  19.6442  19.7069
    19.7313  19.7831  19.8283  19.8551  20.0003  20.0062  20.0690  20.0937

     occupation numbers 
     1.0000   1.0000   1.0000   1.0000   1.0000   1.0000   1.0000   1.0000
     1.0000   1.0000   1.0000   1.0000   1.0000   1.0000   1.0000   1.0000
     1.0000   1.0000   1.0000   1.0000   1.0000   1.0000   1.0000   1.0000
     1.0000   1.0000   1.0000   1.0000   1.0000   1.0000   1.0000   1.0000
     1.0000   1.0000   1.0000   1.0000   1.0000   1.0000   1.0000   1.0000
     1.0000   1.0000   1.0000   1.0000   1.0000   1.0000   1.0000   1.0000
     1.0000   1.0000   1.0000   1.0000   1.0000   1.0000   1.0000   1.0000
     1.0000   1.0000   1.0000   1.0000   1.0000   1.0000   1.0000   1.0000
     1.0000   1.0000   1.0000   1.0000   1.0000   1.0000   1.0000   1.0000
     1.0000   1.0000   1.0000   1.0000   1.0000   1.0000   1.0000   1.0000
     1.0000   1.0000   1.0000   1.0000   1.0000   1.0000   1.0000   1.0000
     1.0000   1.0000   1.0000   1.0000   1.0000   1.0000   1.0000   1.0000
     1.0000   1.0000   1.0000   1.0000   1.0000   1.0000   1.0000   1.0000
     1.0000   1.0000   1.0000   1.0000   1.0000   1.0000   1.0000   1.0000
     1.0000   1.0000   1.0000   1.0000   1.0000   1.0000   1.0000   1.0000
     1.0000   1.0000   1.0000   1.0000   1.0000   1.0000   1.0000   1.0000
     0.0000   0.0000   0.0000   0.0000   0.0000   0.0000   0.0000   0.0000
     0.0000   0.0000   0.0000   0.0000   0.0000   0.0000   0.0000   0.0000
     0.0000   0.0000   0.0000   0.0000   0.0000   0.0000   0.0000   0.0000

 ------ SPIN DOWN ----------


          k = 0.0000 0.0000 0.0000 ( 24207 PWs)   bands (ev):

    -8.5155  -6.7936  -6.2578  -6.2578  -6.1280  -6.1280  -5.8517  -4.8230
    -4.1310  -4.1310  -4.0709  -4.0709  -4.0241  -3.9771  -3.9771  -3.9716
    -3.7254  -3.7254  -3.3273  -2.9400  -2.5672  -2.5672  -1.8377  -0.3703
    -0.3458  -0.3458  -0.2681   0.0074   0.2045   0.2045   0.2800   0.2800
     0.3532   0.6182   0.8863   0.8863   0.9582   0.9860   0.9860   1.0880
     1.0880   1.1095   1.6196   1.6196   3.0364   4.0519   4.0679   4.0679
     4.2204   4.2204   4.2388   4.2818   4.3242   4.3242   4.4661   4.4661
     4.4984   4.4984   4.5853   4.6344   4.6344   4.6832   4.7602   4.7754
     4.7754   4.8417   4.8753   4.8753   5.1995   5.3025   5.3025   5.3457
     5.3457   5.3594   5.3665   5.5686   5.5686   6.0241   6.0241   6.0355
     6.6427   6.6427   6.7407   7.0431   7.1605   7.1605   7.4368   8.3468
     8.3468   8.4145   8.5233   8.5233   8.6823   8.6823   8.7809   8.7809
     8.8167   8.8696   8.9867   8.9867   9.0053   9.2729   9.2729   9.3515
     9.8471   9.8471   9.8564   9.8628   9.8628   9.8912   9.9456   9.9456
     9.9601   9.9601   9.9673  10.0300  10.1509  10.1509  10.4730  10.5042
    10.5042  10.6088  12.4580  12.5410  12.5410  14.1606  16.2149  16.2149
    17.0831  17.3580  17.3580  17.4807  17.4984  17.4984  17.7249  17.8856
    17.8856  17.9880  17.9880  18.3521  18.7385  18.7385  18.8689  20.3750
    20.7533  20.7534  20.8604  20.8605  20.8664  20.9422  20.9422  20.9716

     occupation numbers 
     1.0000   1.0000   1.0000   1.0000   1.0000   1.0000   1.0000   1.0000
     1.0000   1.0000   1.0000   1.0000   1.0000   1.0000   1.0000   1.0000
     1.0000   1.0000   1.0000   1.0000   1.0000   1.0000   1.0000   1.0000
     1.0000   1.0000   1.0000   1.0000   1.0000   1.0000   1.0000   1.0000
     1.0000   1.0000   1.0000   1.0000   1.0000   1.0000   1.0000   1.0000
     1.0000   1.0000   1.0000   1.0000   1.0000   1.0000   1.0000   1.0000
     1.0000   1.0000   1.0000   1.0000   1.0000   1.0000   1.0000   1.0000
     1.0000   1.0000   1.0000   1.0000   1.0000   1.0000   1.0000   1.0000
     1.0000   1.0000   1.0000   1.0000   1.0000   1.0000   1.0000   1.0000
     1.0000   1.0000   1.0000   1.0000   1.0000   1.0000   1.0000   1.0000
     1.0000   1.0000   1.0000   1.0000   1.0000   1.0000   1.0000   1.0000
     1.0000   1.0000   1.0000   1.0000   1.0000   1.0000   1.0000   1.0000
     1.0000   1.0000   1.0000   1.0000   1.0000   1.0000   1.0000   1.0000
     1.0000   1.0000   1.0000   1.0000   1.0000   1.0000   1.0000   1.0000
     1.0000   1.0000   1.0000   1.0000   1.0000   1.0000   1.0000   1.0000
     1.0000   1.0000   1.0000   1.0000   1.0000   0.0000   1.0000   0.0000
     0.0000   0.0000   0.0000   0.0000   0.0000   0.0000   0.0000   0.0000
     0.0000   0.0000   0.0000   0.0000   0.0000   0.0000   0.0000   0.0000
     0.0000   0.0000   0.0000   0.0000   0.0000   0.0000   0.0000   0.0000

          k = 0.0000 0.0000 0.3333 ( 24280 PWs)   bands (ev):

    -8.2836  -7.4956  -6.4177  -6.0164  -5.9035  -5.8008  -5.4494  -5.2629
    -5.0873  -4.9059  -4.4749  -4.0801  -3.7693  -3.7611  -3.6324  -3.4129
    -3.1209  -3.0652  -2.8529  -2.5442  -2.4761  -2.2879  -2.2170  -1.6669
    -0.7402  -0.6636  -0.5140  -0.2422   0.2237   0.2962   0.3677   0.4367
     0.5247   0.6222   0.6244   0.6997   0.8025   0.8074   1.1484   1.5428
     2.0387   2.0695   2.2393   2.2875   2.4745   2.5659   2.5702   2.7672
     3.0298   3.0525   3.2891   3.3251   3.9499   4.0036   4.0997   4.1035
     4.3546   4.3629   4.5685   4.5914   5.0629   5.1578   5.1713   5.2440
     5.2661   5.6635   5.6659   5.8303   5.8572   6.1203   6.1230   6.2310
     6.2406   6.3768   6.4128   6.4992   6.5635   6.6046   6.7118   6.7667
     6.8128   6.9449   7.0267   7.0702   7.1976   7.2236   7.3020   7.3420
     7.4619   7.5405   7.7885   7.8100   7.9481   8.1447   8.1765   8.3616
     8.4307   8.5013   8.7352   8.7982   8.8008   9.0849   9.3192   9.4035
     9.4283   9.6792   9.7182   9.8031   9.8912   9.9061   9.9478   9.9549
     9.9910  10.0883  10.1394  10.1628  10.3329  10.3845  10.4496  10.4884
    10.5686  11.0901  11.8084  11.8376  12.0801  13.9238  15.8901  15.9891
    17.1233  17.2914  17.9039  18.2009  18.3702  18.4853  18.4919  18.5553
    18.7399  18.8536  18.9879  19.0386  19.2226  19.7444  19.8178  20.3186
    20.6440  20.6724  20.7777  20.8024  20.8553  20.8737  20.9540  20.9603

     occupation numbers 
     1.0000   1.0000   1.0000   1.0000   1.0000   1.0000   1.0000   1.0000
     1.0000   1.0000   1.0000   1.0000   1.0000   1.0000   1.0000   1.0000
     1.0000   1.0000   1.0000   1.0000   1.0000   1.0000   1.0000   1.0000
     1.0000   1.0000   1.0000   1.0000   1.0000   1.0000   1.0000   1.0000
     1.0000   1.0000   1.0000   1.0000   1.0000   1.0000   1.0000   1.0000
     1.0000   1.0000   1.0000   1.0000   1.0000   1.0000   1.0000   1.0000
     1.0000   1.0000   1.0000   1.0000   1.0000   1.0000   1.0000   1.0000
     1.0000   1.0000   1.0000   1.0000   1.0000   1.0000   1.0000   1.0000
     1.0000   1.0000   1.0000   1.0000   1.0000   1.0000   1.0000   1.0000
     1.0000   1.0000   1.0000   1.0000   1.0000   1.0000   1.0000   1.0000
     1.0000   1.0000   1.0000   1.0000   1.0000   1.0000   1.0000   1.0000
     1.0000   1.0000   1.0000   1.0000   1.0000   1.0000   1.0000   1.0000
     1.0000   1.0000   1.0000   1.0000   1.0000   1.0000   1.0000   1.0000
     1.0000   1.0000   1.0000   1.0000   1.0000   1.0000   1.0000   1.0000
     1.0000   1.0000   1.0000   1.0000   1.0000   1.0000   1.0000   1.0000
     1.0000   1.0000   1.0000   1.0000   1.0000   0.0000   1.0000   0.0000
     0.0000   0.0000   0.0000   0.0000   0.0000   0.0000   0.0000   0.0000
     0.0000   0.0000   0.0000   0.0000   0.0000   0.0000   0.0000   0.0000
     0.0000   0.0000   0.0000   0.0000   0.0000   0.0000   0.0000   0.0000

          k = 0.0000 0.3333 0.3333 ( 24236 PWs)   bands (ev):

    -8.0620  -7.3019  -7.1948  -6.5016  -5.8792  -5.6340  -5.2623  -4.9908
    -4.9353  -4.8322  -4.4155  -4.2234  -4.1645  -3.8352  -3.4655  -3.4632
    -2.7023  -2.3820  -2.2989  -2.2877  -2.1480  -2.1240  -1.9248  -1.8224
    -1.4200  -1.2526  -1.0134  -0.7972  -0.3989   0.0203   0.1122   0.1902
     0.2576   0.5184   0.7620   1.2292   1.2457   1.3572   1.4360   1.4387
     1.5326   1.5807   1.9754   2.1165   2.2501   2.4762   2.7617   2.9041
     3.1031   3.5351   3.7056   3.7206   3.8476   3.9234   3.9805   4.1218
     4.1849   4.5541   4.6897   4.8890   5.0980   5.1448   5.2089   5.3925
     5.4117   5.6360   5.6712   5.7291   5.8942   6.0604   6.0817   6.1350
     6.1615   6.2834   6.3627   6.5315   6.5478   6.6291   6.6686   6.9450
     6.9630   7.0721   7.0980   7.1150   7.2808   7.3423   7.5975   7.7271
     7.9387   8.0311   8.0633   8.1051   8.1650   8.3030   8.3234   8.4021
     8.4418   8.5635   8.6190   8.6994   8.7596   8.8524   8.9572   8.9706
     9.1393   9.2504   9.2798   9.3323   9.5002   9.5635   9.6985   9.7115
     9.8428   9.8821   9.9899  10.1067  10.1842  10.2558  10.4910  10.7734
    11.0952  11.2824  11.5718  11.6663  12.3027  13.7699  15.7416  16.0935
    17.8720  18.2179  18.2368  18.3096  18.3519  18.7626  18.8910  18.9092
    19.1309  19.1502  19.4738  19.5108  19.6401  19.8505  19.9373  19.9712
    20.1648  20.4247  20.5250  20.5675  20.5806  20.5814  20.6240  20.6939

     occupation numbers 
     1.0000   1.0000   1.0000   1.0000   1.0000   1.0000   1.0000   1.0000
     1.0000   1.0000   1.0000   1.0000   1.0000   1.0000   1.0000   1.0000
     1.0000   1.0000   1.0000   1.0000   1.0000   1.0000   1.0000   1.0000
     1.0000   1.0000   1.0000   1.0000   1.0000   1.0000   1.0000   1.0000
     1.0000   1.0000   1.0000   1.0000   1.0000   1.0000   1.0000   1.0000
     1.0000   1.0000   1.0000   1.0000   1.0000   1.0000   1.0000   1.0000
     1.0000   1.0000   1.0000   1.0000   1.0000   1.0000   1.0000   1.0000
     1.0000   1.0000   1.0000   1.0000   1.0000   1.0000   1.0000   1.0000
     1.0000   1.0000   1.0000   1.0000   1.0000   1.0000   1.0000   1.0000
     1.0000   1.0000   1.0000   1.0000   1.0000   1.0000   1.0000   1.0000
     1.0000   1.0000   1.0000   1.0000   1.0000   1.0000   1.0000   1.0000
     1.0000   1.0000   1.0000   1.0000   1.0000   1.0000   1.0000   1.0000
     1.0000   1.0000   1.0000   1.0000   1.0000   1.0000   1.0000   1.0000
     1.0000   1.0000   1.0000   1.0000   1.0000   1.0000   1.0000   1.0000
     1.0000   1.0000   1.0000   1.0000   1.0000   1.0000   1.0000   1.0000
     1.0000   1.0000   1.0000   1.0000   1.0000   0.0000   1.0000   0.0000
     0.0000   0.0000   0.0000   0.0000   0.0000   0.0000   0.0000   0.0000
     0.0000   0.0000   0.0000   0.0000   0.0000   0.0000   0.0000   0.0000
     0.0000   0.0000   0.0000   0.0000   0.0000   0.0000   0.0000   0.0000

          k = 0.3333 0.3333 0.3333 ( 24303 PWs)   bands (ev):

    -7.8537  -7.1197  -6.9536  -6.9536  -6.2440  -6.1702  -6.1702  -5.3483
    -4.0588  -4.0120  -4.0120  -3.4854  -3.3505  -3.3505  -3.3236  -3.2411
    -3.2411  -2.8736  -2.5582  -2.5582  -1.9181  -1.9040  -1.9040  -1.5409
    -1.4541  -1.4541  -1.3513  -1.3513  -1.3403  -0.9213  -0.9213   0.2051
     0.9200   0.9200   1.0433   1.0472   1.0472   1.3378   1.8998   1.9029
     1.9029   1.9430   2.0458   2.0458   2.6231   2.6535   2.6535   2.7702
     2.7702   2.8094   3.2592   3.2592   3.6266   4.1608   4.3717   4.3717
     4.8519   4.9702   4.9702   5.0205   5.1035   5.1035   5.1519   5.3945
     5.3945   5.4972   5.5645   5.5645   5.6340   5.6340   5.6665   6.4136
     6.8462   6.8462   6.9484   7.0012   7.0078   7.0078   7.1548   7.1548
     7.2474   7.2474   7.2506   7.2992   7.3357   7.3357   7.4202   7.4537
     7.4537   7.5860   7.7701   7.7701   7.9396   7.9396   7.9650   8.0310
     8.2761   8.2761   8.3645   8.3645   8.3859   8.4907   8.5933   8.5933
     8.8195   8.8195   8.9385   9.1661   9.2782   9.6272   9.6272   9.9280
     9.9280  10.5282  10.5497  10.5497  10.5738  11.0233  11.0233  11.1746
    11.3786  11.4040  11.4040  11.7263  11.7263  13.6571  16.0649  16.0649
    17.8353  18.2708  18.2708  18.4546  18.6281  18.6281  19.1694  19.3348
    19.3348  19.6048  19.6048  19.6132  19.6132  19.6468  19.6551  19.7443
    19.7443  19.8256  19.9318  19.9318  20.0677  20.0677  20.0697  20.2101

     occupation numbers 
     1.0000   1.0000   1.0000   1.0000   1.0000   1.0000   1.0000   1.0000
     1.0000   1.0000   1.0000   1.0000   1.0000   1.0000   1.0000   1.0000
     1.0000   1.0000   1.0000   1.0000   1.0000   1.0000   1.0000   1.0000
     1.0000   1.0000   1.0000   1.0000   1.0000   1.0000   1.0000   1.0000
     1.0000   1.0000   1.0000   1.0000   1.0000   1.0000   1.0000   1.0000
     1.0000   1.0000   1.0000   1.0000   1.0000   1.0000   1.0000   1.0000
     1.0000   1.0000   1.0000   1.0000   1.0000   1.0000   1.0000   1.0000
     1.0000   1.0000   1.0000   1.0000   1.0000   1.0000   1.0000   1.0000
     1.0000   1.0000   1.0000   1.0000   1.0000   1.0000   1.0000   1.0000
     1.0000   1.0000   1.0000   1.0000   1.0000   1.0000   1.0000   1.0000
     1.0000   1.0000   1.0000   1.0000   1.0000   1.0000   1.0000   1.0000
     1.0000   1.0000   1.0000   1.0000   1.0000   1.0000   1.0000   1.0000
     1.0000   1.0000   1.0000   1.0000   1.0000   1.0000   1.0000   1.0000
     1.0000   1.0000   1.0000   1.0000   1.0000   1.0000   1.0000   1.0000
     1.0000   1.0000   1.0000   1.0000   1.0000   1.0000   1.0000   1.0000
     1.0000   1.0000   1.0000   1.0000   1.0000   0.0000   1.0000   0.0000
     0.0000   0.0000   0.0000   0.0000   0.0000   0.0000   0.0000   0.0000
     0.0000   0.0000   0.0000   0.0000   0.0000   0.0000   0.0000   0.0000
     0.0000   0.0000   0.0000   0.0000   0.0000   0.0000   0.0000   0.0000

          k =-0.3333 0.0000 0.3333 ( 24236 PWs)   bands (ev):

    -8.0487  -7.4256  -7.0762  -6.4640  -5.9245  -5.6580  -5.2974  -5.0145
    -4.8706  -4.6961  -4.4923  -4.2428  -4.1388  -3.9992  -3.5221  -3.2909
    -2.6908  -2.3841  -2.3610  -2.2480  -2.1399  -2.0779  -2.0303  -1.6315
    -1.4467  -1.2633  -1.0666  -0.8381  -0.4771   0.0311   0.0970   0.1799
     0.3599   0.5445   1.0274   1.0967   1.2566   1.2798   1.3186   1.4307
     1.5276   1.6551   1.9159   1.9753   2.1623   2.6711   2.6992   2.9122
     3.0991   3.5797   3.6962   3.7183   3.8026   4.0054   4.0555   4.2589
     4.2994   4.4300   4.6818   4.8525   5.0222   5.0719   5.2510   5.3248
     5.5201   5.5714   5.6643   5.7173   5.8777   6.0608   6.1005   6.1617
     6.2469   6.3282   6.4019   6.4718   6.5029   6.6323   6.6453   6.8694
     6.9445   7.0406   7.1157   7.1791   7.2873   7.4577   7.6083   7.7811
     7.8966   7.9211   8.0507   8.0752   8.2092   8.2481   8.2825   8.3468
     8.4406   8.5283   8.6173   8.6825   8.7957   8.8296   8.9801   9.0362
     9.1677   9.2520   9.3340   9.3721   9.4982   9.5442   9.5934   9.7619
     9.7966   9.8818  10.0195  10.1083  10.1668  10.2876  10.6141  10.7485
    10.9973  11.2596  11.5105  11.6482  12.3573  13.9870  15.7158  15.9431
    17.8621  18.2340  18.2608  18.2979  18.3728  18.7765  18.9695  19.0279
    19.0756  19.2434  19.3260  19.4859  19.6558  19.8132  19.9103  20.0090
    20.1734  20.2707  20.4407  20.5231  20.5730  20.6200  20.6719  20.7086

     occupation numbers 
     1.0000   1.0000   1.0000   1.0000   1.0000   1.0000   1.0000   1.0000
     1.0000   1.0000   1.0000   1.0000   1.0000   1.0000   1.0000   1.0000
     1.0000   1.0000   1.0000   1.0000   1.0000   1.0000   1.0000   1.0000
     1.0000   1.0000   1.0000   1.0000   1.0000   1.0000   1.0000   1.0000
     1.0000   1.0000   1.0000   1.0000   1.0000   1.0000   1.0000   1.0000
     1.0000   1.0000   1.0000   1.0000   1.0000   1.0000   1.0000   1.0000
     1.0000   1.0000   1.0000   1.0000   1.0000   1.0000   1.0000   1.0000
     1.0000   1.0000   1.0000   1.0000   1.0000   1.0000   1.0000   1.0000
     1.0000   1.0000   1.0000   1.0000   1.0000   1.0000   1.0000   1.0000
     1.0000   1.0000   1.0000   1.0000   1.0000   1.0000   1.0000   1.0000
     1.0000   1.0000   1.0000   1.0000   1.0000   1.0000   1.0000   1.0000
     1.0000   1.0000   1.0000   1.0000   1.0000   1.0000   1.0000   1.0000
     1.0000   1.0000   1.0000   1.0000   1.0000   1.0000   1.0000   1.0000
     1.0000   1.0000   1.0000   1.0000   1.0000   1.0000   1.0000   1.0000
     1.0000   1.0000   1.0000   1.0000   1.0000   1.0000   1.0000   1.0000
     1.0000   1.0000   1.0000   1.0000   1.0000   0.0000   1.0000   0.0000
     0.0000   0.0000   0.0000   0.0000   0.0000   0.0000   0.0000   0.0000
     0.0000   0.0000   0.0000   0.0000   0.0000   0.0000   0.0000   0.0000
     0.0000   0.0000   0.0000   0.0000   0.0000   0.0000   0.0000   0.0000

          k = 0.3333-0.3333 0.3333 ( 24303 PWs)   bands (ev):

    -7.8269  -7.2703  -6.9546  -6.8107  -6.4099  -6.1670  -5.9171  -5.3800
    -4.3667  -4.0244  -3.9330  -3.6159  -3.4084  -3.3398  -3.3192  -3.1260
    -3.0444  -2.8510  -2.5944  -2.2848  -2.0043  -1.8658  -1.8008  -1.6910
    -1.4806  -1.4641  -1.3959  -1.3243  -1.3006  -1.0512  -0.8939   0.0619
     0.7996   0.9236   0.9923   1.0498   1.1564   1.4405   1.8073   1.8175
     1.9105   1.9852   2.0873   2.3194   2.6165   2.6574   2.7521   2.7785
     2.8124   2.8862   2.9929   3.3008   3.5854   4.0318   4.2979   4.3792
     4.8782   4.8835   4.9240   5.0353   5.0388   5.0759   5.2356   5.2896
     5.3803   5.4671   5.4974   5.6184   5.6923   5.8561   5.9481   6.5507
     6.7462   6.8437   6.9452   6.9605   6.9747   7.0731   7.1150   7.1447
     7.2153   7.2536   7.2540   7.2892   7.3729   7.3973   7.4228   7.4539
     7.4623   7.5449   7.7975   7.8108   7.9041   7.9403   7.9740   8.0176
     8.1723   8.2026   8.3380   8.4043   8.4174   8.4178   8.4660   8.6752
     8.7670   8.8409   9.0328   9.0649   9.2391   9.6244   9.6825   9.7729
    10.0341  10.4534  10.5197  10.6049  10.6332  10.9561  10.9945  11.2124
    11.3066  11.3362  11.4038  11.8288  11.8473  13.9913  15.7578  16.0702
    17.8950  18.2989  18.3216  18.4730  18.6254  18.7528  19.0760  19.3303
    19.4570  19.5096  19.5724  19.5981  19.6229  19.6556  19.6793  19.7284
    19.7522  19.8073  19.8680  19.8847  20.0195  20.0284  20.0987  20.1566

     occupation numbers 
     1.0000   1.0000   1.0000   1.0000   1.0000   1.0000   1.0000   1.0000
     1.0000   1.0000   1.0000   1.0000   1.0000   1.0000   1.0000   1.0000
     1.0000   1.0000   1.0000   1.0000   1.0000   1.0000   1.0000   1.0000
     1.0000   1.0000   1.0000   1.0000   1.0000   1.0000   1.0000   1.0000
     1.0000   1.0000   1.0000   1.0000   1.0000   1.0000   1.0000   1.0000
     1.0000   1.0000   1.0000   1.0000   1.0000   1.0000   1.0000   1.0000
     1.0000   1.0000   1.0000   1.0000   1.0000   1.0000   1.0000   1.0000
     1.0000   1.0000   1.0000   1.0000   1.0000   1.0000   1.0000   1.0000
     1.0000   1.0000   1.0000   1.0000   1.0000   1.0000   1.0000   1.0000
     1.0000   1.0000   1.0000   1.0000   1.0000   1.0000   1.0000   1.0000
     1.0000   1.0000   1.0000   1.0000   1.0000   1.0000   1.0000   1.0000
     1.0000   1.0000   1.0000   1.0000   1.0000   1.0000   1.0000   1.0000
     1.0000   1.0000   1.0000   1.0000   1.0000   1.0000   1.0000   1.0000
     1.0000   1.0000   1.0000   1.0000   1.0000   1.0000   1.0000   1.0000
     1.0000   1.0000   1.0000   1.0000   1.0000   1.0000   1.0000   1.0000
     1.0000   1.0000   1.0000   1.0000   1.0000   0.0000   1.0000   0.0000
     0.0000   0.0000   0.0000   0.0000   0.0000   0.0000   0.0000   0.0000
     0.0000   0.0000   0.0000   0.0000   0.0000   0.0000   0.0000   0.0000
     0.0000   0.0000   0.0000   0.0000   0.0000   0.0000   0.0000   0.0000

     highest occupied, lowest unoccupied level (ev):    15.0693   13.6571

!    total energy              =    -724.61936007 Ry
     Harris-Foulkes estimate   =    -724.61935903 Ry
     estimated scf accuracy    <       0.00000083 Ry

     The total energy is the sum of the following terms:

     one-electron contribution =     238.44801889 Ry
     hartree contribution      =      66.61410303 Ry
     xc contribution           =    -226.13158894 Ry
     ewald contribution        =    -803.54989304 Ry

     total magnetization       =     2.00 Bohr mag/cell
     absolute magnetization    =     2.12 Bohr mag/cell

     convergence has been achieved in  10 iterations

     Forces acting on atoms (cartesian axes, Ry/au):

     atom    1 type  1   force =    -0.00245748   -0.00245748   -0.00232219
     atom    2 type  1   force =     0.00979062    0.00282305    0.00282305
     atom    3 type  1   force =    -0.00126608   -0.00365472   -0.00126608
     atom    4 type  1   force =     0.00282305    0.00979062    0.00282305
     atom    5 type  1   force =    -0.00365472   -0.00126608   -0.00126608
     atom    6 type  1   force =    -0.00087547   -0.00087547   -0.00087547
     atom    7 type  1   force =     0.00282305    0.00282305    0.00979062
     atom    8 type  1   force =     0.00487037    0.00487037    0.00177274
     atom    9 type  1   force =     0.01890068    0.01890068   -0.01456080
     atom   10 type  1   force =    -0.00377744   -0.00536106   -0.00279307
     atom   11 type  1   force =     0.03337460   -0.03053092    0.01918152
     atom   12 type  1   force =    -0.00536106   -0.00377744   -0.00279307
     atom   13 type  1   force =    -0.03053092    0.03337460    0.01918152
     atom   14 type  1   force =    -0.00301300   -0.00301300    0.00471993
     atom   15 type  1   force =    -0.00126608   -0.00126608   -0.00365472
     atom   16 type  1   force =    -0.03374188   -0.03374188   -0.00116498
     atom   17 type  1   force =     0.01918152    0.03337460   -0.03053092
     atom   18 type  1   force =     0.01918152   -0.03053092    0.03337460
     atom   19 type  1   force =    -0.00116498   -0.03374188   -0.03374188
     atom   20 type  1   force =     0.00177274    0.00487037    0.00487037
     atom   21 type  1   force =    -0.00279307   -0.00377744   -0.00536106
     atom   22 type  1   force =    -0.00279307   -0.00536106   -0.00377744
     atom   23 type  1   force =     0.00471993   -0.00301300   -0.00301300
     atom   24 type  1   force =     0.01890068   -0.01456080    0.01890068
     atom   25 type  1   force =     0.03337460    0.01918152   -0.03053092
     atom   26 type  1   force =     0.00487037    0.00177274    0.00487037
     atom   27 type  1   force =    -0.00377744   -0.00279307   -0.00536106
     atom   28 type  1   force =    -0.03053092    0.01918152    0.03337460
     atom   29 type  1   force =    -0.03374188   -0.00116498   -0.03374188
     atom   30 type  1   force =    -0.01456080    0.01890068    0.01890068
     atom   31 type  1   force =    -0.00536106   -0.00279307   -0.00377744
     atom   32 type  1   force =     0.00394767   -0.00071785    0.00394767
     atom   33 type  1   force =     0.06285223   -0.09960311    0.06285223
     atom   34 type  1   force =     0.00362846    0.00611236    0.00611236
     atom   35 type  1   force =    -0.00245748   -0.00232219   -0.00245748
     atom   36 type  1   force =     0.00611236    0.00362846    0.00611236
     atom   37 type  1   force =    -0.00232219   -0.00245748   -0.00245748
     atom   38 type  1   force =    -0.00193091   -0.00193091   -0.00193091
     atom   39 type  1   force =     0.00611236    0.00611236    0.00362846
     atom   40 type  1   force =     0.00050749    0.00050749    0.00025827
     atom   41 type  1   force =    -0.00029241   -0.00029241   -0.00656216
     atom   42 type  1   force =    -0.00868572   -0.00561923    0.00456130
     atom   43 type  1   force =     0.00784522   -0.00237290    0.01001767
     atom   44 type  1   force =    -0.00561923   -0.00868572    0.00456130
     atom   45 type  1   force =    -0.00237290    0.00784522    0.01001767
     atom   46 type  1   force =    -0.00561923    0.00456130   -0.00868572
     atom   47 type  1   force =     0.00394767    0.00394767   -0.00071785
     atom   48 type  1   force =    -0.00656216   -0.00029241   -0.00029241
     atom   49 type  1   force =     0.01001767    0.00784522   -0.00237290
     atom   50 type  1   force =     0.01001767   -0.00237290    0.00784522
     atom   51 type  1   force =    -0.09960311    0.06285223    0.06285223
     atom   52 type  1   force =     0.00025827    0.00050749    0.00050749
     atom   53 type  1   force =     0.00456130   -0.00868572   -0.00561923
     atom   54 type  1   force =     0.00456130   -0.00561923   -0.00868572
     atom   55 type  1   force =    -0.00071785    0.00394767    0.00394767
     atom   56 type  1   force =    -0.00029241   -0.00656216   -0.00029241
     atom   57 type  1   force =     0.00784522    0.01001767   -0.00237290
     atom   58 type  1   force =     0.00050749    0.00025827    0.00050749
     atom   59 type  1   force =    -0.00868572    0.00456130   -0.00561923
     atom   60 type  1   force =    -0.00237290    0.01001767    0.00784522
     atom   61 type  1   force =     0.06285223    0.06285223   -0.09960311
     atom   62 type  1   force =    -0.00301300    0.00471993   -0.00301300
     atom   63 type  2   force =    -0.03894380   -0.03894380   -0.03894380
     The non-local contrib.  to forces
     atom    1 type  1   force =    -0.00962283   -0.00962283    0.06128261
     atom    2 type  1   force =    -0.03076252    0.02232374    0.02232374
     atom    3 type  1   force =    -0.00443987    0.02258612   -0.00443987
     atom    4 type  1   force =     0.02232374   -0.03076252    0.02232374
     atom    5 type  1   force =     0.02258612   -0.00443987   -0.00443987
     atom    6 type  1   force =     0.00528969    0.00528969    0.00528969
     atom    7 type  1   force =     0.02232374    0.02232374   -0.03076252
     atom    8 type  1   force =    -0.01903685   -0.01903685    0.02531295
     atom    9 type  1   force =     0.16376233    0.16376233   -0.16933381
     atom   10 type  1   force =    -0.00181750    0.00397309    0.02299658
     atom   11 type  1   force =    -0.06291215    0.04171859   -0.08184973
     atom   12 type  1   force =     0.00397309   -0.00181750    0.02299658
     atom   13 type  1   force =     0.04171859   -0.06291215   -0.08184973
     atom   14 type  1   force =     0.01759871    0.01759871    0.00192512
     atom   15 type  1   force =    -0.00443987   -0.00443987    0.02258612
     atom   16 type  1   force =     0.04531482    0.04531482    0.05396490
     atom   17 type  1   force =    -0.08184973   -0.06291215    0.04171859
     atom   18 type  1   force =    -0.08184973    0.04171859   -0.06291215
     atom   19 type  1   force =     0.05396490    0.04531482    0.04531482
     atom   20 type  1   force =     0.02531295   -0.01903685   -0.01903685
     atom   21 type  1   force =     0.02299658   -0.00181750    0.00397309
     atom   22 type  1   force =     0.02299658    0.00397309   -0.00181750
     atom   23 type  1   force =     0.00192512    0.01759871    0.01759871
     atom   24 type  1   force =     0.16376233   -0.16933381    0.16376233
     atom   25 type  1   force =    -0.06291215   -0.08184973    0.04171859
     atom   26 type  1   force =    -0.01903685    0.02531295   -0.01903685
     atom   27 type  1   force =    -0.00181750    0.02299658    0.00397309
     atom   28 type  1   force =     0.04171859   -0.08184973   -0.06291215
     atom   29 type  1   force =     0.04531482    0.05396490    0.04531482
     atom   30 type  1   force =    -0.16933381    0.16376233    0.16376233
     atom   31 type  1   force =     0.00397309    0.02299658   -0.00181750
     atom   32 type  1   force =    -0.00018073    0.05981211   -0.00018073
     atom   33 type  1   force =     0.45329494   -0.47063677    0.45329494
     atom   34 type  1   force =    -0.05119266    0.03781682    0.03781682
     atom   35 type  1   force =    -0.00962283    0.06128261   -0.00962283
     atom   36 type  1   force =     0.03781682   -0.05119266    0.03781682
     atom   37 type  1   force =     0.06128261   -0.00962283   -0.00962283
     atom   38 type  1   force =     0.01166260    0.01166260    0.01166260
     atom   39 type  1   force =     0.03781682    0.03781682   -0.05119266
     atom   40 type  1   force =    -0.00144023   -0.00144023    0.01188664
     atom   41 type  1   force =     0.01385450    0.01385450   -0.00520778
     atom   42 type  1   force =    -0.03024617    0.04823776    0.04208958
     atom   43 type  1   force =    -0.01528462   -0.04207792   -0.04615216
     atom   44 type  1   force =     0.04823776   -0.03024617    0.04208958
     atom   45 type  1   force =    -0.04207792   -0.01528462   -0.04615216
     atom   46 type  1   force =     0.04823776    0.04208958   -0.03024617
     atom   47 type  1   force =    -0.00018073   -0.00018073    0.05981211
     atom   48 type  1   force =    -0.00520778    0.01385450    0.01385450
     atom   49 type  1   force =    -0.04615216   -0.01528462   -0.04207792
     atom   50 type  1   force =    -0.04615216   -0.04207792   -0.01528462
     atom   51 type  1   force =    -0.47063677    0.45329494    0.45329494
     atom   52 type  1   force =     0.01188664   -0.00144023   -0.00144023
     atom   53 type  1   force =     0.04208958   -0.03024617    0.04823776
     atom   54 type  1   force =     0.04208958    0.04823776   -0.03024617
     atom   55 type  1   force =     0.05981211   -0.00018073   -0.00018073
     atom   56 type  1   force =     0.01385450   -0.00520778    0.01385450
     atom   57 type  1   force =    -0.01528462   -0.04615216   -0.04207792
     atom   58 type  1   force =    -0.00144023    0.01188664   -0.00144023
     atom   59 type  1   force =    -0.03024617    0.04208958    0.04823776
     atom   60 type  1   force =    -0.04207792   -0.04615216   -0.01528462
     atom   61 type  1   force =     0.45329494    0.45329494   -0.47063677
     atom   62 type  1   force =     0.01759871    0.00192512    0.01759871
     atom   63 type  2   force =    -0.71108182   -0.71108182   -0.71108182
     The ionic contribution  to forces
     atom    1 type  1   force =     0.27836098    0.27836098   -0.57616026
     atom    2 type  1   force =     0.03103656   -0.05202026   -0.05202026
     atom    3 type  1   force =     0.06959025   -0.14404007    0.06959025
     atom    4 type  1   force =    -0.05202026    0.03103656   -0.05202026
     atom    5 type  1   force =    -0.14404007    0.06959025    0.06959025
     atom    6 type  1   force =    -0.02794042   -0.02794042   -0.02794042
     atom    7 type  1   force =    -0.05202026   -0.05202026    0.03103656
     atom    8 type  1   force =     0.11807391    0.11807391   -0.14404007
     atom    9 type  1   force =     0.30992892    0.30992892    0.52079023
     atom   10 type  1   force =     0.15662760   -0.13564389   -0.05202026
     atom   11 type  1   force =     0.76112890   -0.68667908    0.06959025
     atom   12 type  1   force =    -0.13564389    0.15662760   -0.05202026
     atom   13 type  1   force =    -0.68667908    0.76112890    0.06959025
     atom   14 type  1   force =    -0.15972373   -0.15972373   -0.02794042
     atom   15 type  1   force =     0.06959025    0.06959025   -0.14404007
     atom   16 type  1   force =    -0.77869888   -0.77869888    0.03103656
     atom   17 type  1   force =     0.06959025    0.76112890   -0.68667908
     atom   18 type  1   force =     0.06959025   -0.68667908    0.76112890
     atom   19 type  1   force =     0.03103656   -0.77869888   -0.77869888
     atom   20 type  1   force =    -0.14404007    0.11807391    0.11807391
     atom   21 type  1   force =    -0.05202026    0.15662760   -0.13564389
     atom   22 type  1   force =    -0.05202026   -0.13564389    0.15662760
     atom   23 type  1   force =    -0.02794042   -0.15972373   -0.15972373
     atom   24 type  1   force =     0.30992892    0.52079023    0.30992892
     atom   25 type  1   force =     0.76112890    0.06959025   -0.68667908
     atom   26 type  1   force =     0.11807391   -0.14404007    0.11807391
     atom   27 type  1   force =     0.15662760   -0.05202026   -0.13564389
     atom   28 type  1   force =    -0.68667908    0.06959025    0.76112890
     atom   29 type  1   force =    -0.77869888    0.03103656   -0.77869888
     atom   30 type  1   force =     0.52079023    0.30992892    0.30992892
     atom   31 type  1   force =    -0.13564389   -0.05202026    0.15662760
     atom   32 type  1   force =    -0.23144494   -0.57616026   -0.23144494
     atom   33 type  1   force =    -1.87548112    2.08316090   -1.87548112
     atom   34 type  1   force =     0.12414622   -0.20808105   -0.20808105
     atom   35 type  1   force =     0.27836098   -0.57616026    0.27836098
     atom   36 type  1   force =    -0.20808105    0.12414622   -0.20808105
     atom   37 type  1   force =    -0.57616026    0.27836098    0.27836098
     atom   38 type  1   force =    -0.11176170   -0.11176170   -0.11176170
     atom   39 type  1   force =    -0.20808105   -0.20808105    0.12414622
     atom   40 type  1   force =     0.06484566    0.06484566   -0.11176170
     atom   41 type  1   force =     0.00040127    0.00040127    0.12414622
     atom   42 type  1   force =     0.16116501   -0.07723018   -0.20808105
     atom   43 type  1   force =     0.36848048   -0.07068119    0.27836098
     atom   44 type  1   force =    -0.07723018    0.16116501   -0.20808105
[...]
     atom   10 type  1   force =     0.00000000    0.00000000    0.00000000
     atom   11 type  1   force =     0.00000000    0.00000000    0.00000000
     atom   12 type  1   force =     0.00000000    0.00000000    0.00000000
     atom   13 type  1   force =     0.00000000    0.00000000    0.00000000
     atom   14 type  1   force =     0.00000000    0.00000000    0.00000000
     atom   15 type  1   force =     0.00000000    0.00000000    0.00000000
     atom   16 type  1   force =     0.00000000    0.00000000    0.00000000
     atom   17 type  1   force =     0.00000000    0.00000000    0.00000000
     atom   18 type  1   force =     0.00000000    0.00000000    0.00000000
     atom   19 type  1   force =     0.00000000    0.00000000    0.00000000
     atom   20 type  1   force =     0.00000000    0.00000000    0.00000000
     atom   21 type  1   force =     0.00000000    0.00000000    0.00000000
     atom   22 type  1   force =     0.00000000    0.00000000    0.00000000
     atom   23 type  1   force =     0.00000000    0.00000000    0.00000000
     atom   24 type  1   force =     0.00000000    0.00000000    0.00000000
     atom   25 type  1   force =     0.00000000    0.00000000    0.00000000
     atom   26 type  1   force =     0.00000000    0.00000000    0.00000000
     atom   27 type  1   force =     0.00000000    0.00000000    0.00000000
     atom   28 type  1   force =     0.00000000    0.00000000    0.00000000
     atom   29 type  1   force =     0.00000000    0.00000000    0.00000000
     atom   30 type  1   force =     0.00000000    0.00000000    0.00000000
     atom   31 type  1   force =     0.00000000    0.00000000    0.00000000
     atom   32 type  1   force =     0.00000000    0.00000000    0.00000000
     atom   33 type  1   force =     0.00000000    0.00000000    0.00000000
     atom   34 type  1   force =     0.00000000    0.00000000    0.00000000
     atom   35 type  1   force =     0.00000000    0.00000000    0.00000000
     atom   36 type  1   force =     0.00000000    0.00000000    0.00000000
     atom   37 type  1   force =     0.00000000    0.00000000    0.00000000
     atom   38 type  1   force =     0.00000000    0.00000000    0.00000000
     atom   39 type  1   force =     0.00000000    0.00000000    0.00000000
     atom   40 type  1   force =     0.00000000    0.00000000    0.00000000
     atom   41 type  1   force =     0.00000000    0.00000000    0.00000000
     atom   42 type  1   force =     0.00000000    0.00000000    0.00000000
     atom   43 type  1   force =     0.00000000    0.00000000    0.00000000
     atom   44 type  1   force =     0.00000000    0.00000000    0.00000000
     atom   45 type  1   force =     0.00000000    0.00000000    0.00000000
     atom   46 type  1   force =     0.00000000    0.00000000    0.00000000
     atom   47 type  1   force =     0.00000000    0.00000000    0.00000000
     atom   48 type  1   force =     0.00000000    0.00000000    0.00000000
     atom   49 type  1   force =     0.00000000    0.00000000    0.00000000
     atom   50 type  1   force =     0.00000000    0.00000000    0.00000000
     atom   51 type  1   force =     0.00000000    0.00000000    0.00000000
     atom   52 type  1   force =     0.00000000    0.00000000    0.00000000
     atom   53 type  1   force =     0.00000000    0.00000000    0.00000000
     atom   54 type  1   force =     0.00000000    0.00000000    0.00000000
     atom   55 type  1   force =     0.00000000    0.00000000    0.00000000
     atom   56 type  1   force =     0.00000000    0.00000000    0.00000000
     atom   57 type  1   force =     0.00000000    0.00000000    0.00000000
     atom   58 type  1   force =     0.00000000    0.00000000    0.00000000
     atom   59 type  1   force =     0.00000000    0.00000000    0.00000000
     atom   60 type  1   force =     0.00000000    0.00000000    0.00000000
     atom   61 type  1   force =     0.00000000    0.00000000    0.00000000
     atom   62 type  1   force =     0.00000000    0.00000000    0.00000000
     atom   63 type  2   force =     0.00000000    0.00000000    0.00000000
     The Hubbard contrib.    to forces
     atom    1 type  1   force =     0.00000000    0.00000000    0.00000000
     atom    2 type  1   force =     0.00000000    0.00000000    0.00000000
     atom    3 type  1   force =     0.00000000    0.00000000    0.00000000
     atom    4 type  1   force =     0.00000000    0.00000000    0.00000000
     atom    5 type  1   force =     0.00000000    0.00000000    0.00000000
     atom    6 type  1   force =     0.00000000    0.00000000    0.00000000
     atom    7 type  1   force =     0.00000000    0.00000000    0.00000000
     atom    8 type  1   force =     0.00000000    0.00000000    0.00000000
     atom    9 type  1   force =     0.00000000    0.00000000    0.00000000
     atom   10 type  1   force =     0.00000000    0.00000000    0.00000000
     atom   11 type  1   force =     0.00000000    0.00000000    0.00000000
     atom   12 type  1   force =     0.00000000    0.00000000    0.00000000
     atom   13 type  1   force =     0.00000000    0.00000000    0.00000000
     atom   14 type  1   force =     0.00000000    0.00000000    0.00000000
     atom   15 type  1   force =     0.00000000    0.00000000    0.00000000
     atom   16 type  1   force =     0.00000000    0.00000000    0.00000000
     atom   17 type  1   force =     0.00000000    0.00000000    0.00000000
     atom   18 type  1   force =     0.00000000    0.00000000    0.00000000
     atom   19 type  1   force =     0.00000000    0.00000000    0.00000000
     atom   20 type  1   force =     0.00000000    0.00000000    0.00000000
     atom   21 type  1   force =     0.00000000    0.00000000    0.00000000
     atom   22 type  1   force =     0.00000000    0.00000000    0.00000000
     atom   23 type  1   force =     0.00000000    0.00000000    0.00000000
     atom   24 type  1   force =     0.00000000    0.00000000    0.00000000
     atom   25 type  1   force =     0.00000000    0.00000000    0.00000000
     atom   26 type  1   force =     0.00000000    0.00000000    0.00000000
     atom   27 type  1   force =     0.00000000    0.00000000    0.00000000
     atom   28 type  1   force =     0.00000000    0.00000000    0.00000000
     atom   29 type  1   force =     0.00000000    0.00000000    0.00000000
     atom   30 type  1   force =     0.00000000    0.00000000    0.00000000
     atom   31 type  1   force =     0.00000000    0.00000000    0.00000000
     atom   32 type  1   force =     0.00000000    0.00000000    0.00000000
     atom   33 type  1   force =     0.00000000    0.00000000    0.00000000
     atom   34 type  1   force =     0.00000000    0.00000000    0.00000000
     atom   35 type  1   force =     0.00000000    0.00000000    0.00000000
     atom   36 type  1   force =     0.00000000    0.00000000    0.00000000
     atom   37 type  1   force =     0.00000000    0.00000000    0.00000000
     atom   38 type  1   force =     0.00000000    0.00000000    0.00000000
     atom   39 type  1   force =     0.00000000    0.00000000    0.00000000
     atom   40 type  1   force =     0.00000000    0.00000000    0.00000000
     atom   41 type  1   force =     0.00000000    0.00000000    0.00000000
     atom   42 type  1   force =     0.00000000    0.00000000    0.00000000
     atom   43 type  1   force =     0.00000000    0.00000000    0.00000000
     atom   44 type  1   force =     0.00000000    0.00000000    0.00000000
     atom   45 type  1   force =     0.00000000    0.00000000    0.00000000
     atom   46 type  1   force =     0.00000000    0.00000000    0.00000000
     atom   47 type  1   force =     0.00000000    0.00000000    0.00000000
     atom   48 type  1   force =     0.00000000    0.00000000    0.00000000
     atom   49 type  1   force =     0.00000000    0.00000000    0.00000000
     atom   50 type  1   force =     0.00000000    0.00000000    0.00000000
     atom   51 type  1   force =     0.00000000    0.00000000    0.00000000
     atom   52 type  1   force =     0.00000000    0.00000000    0.00000000
     atom   53 type  1   force =     0.00000000    0.00000000    0.00000000
     atom   54 type  1   force =     0.00000000    0.00000000    0.00000000
     atom   55 type  1   force =     0.00000000    0.00000000    0.00000000
     atom   56 type  1   force =     0.00000000    0.00000000    0.00000000
     atom   57 type  1   force =     0.00000000    0.00000000    0.00000000
     atom   58 type  1   force =     0.00000000    0.00000000    0.00000000
     atom   59 type  1   force =     0.00000000    0.00000000    0.00000000
     atom   60 type  1   force =     0.00000000    0.00000000    0.00000000
     atom   61 type  1   force =     0.00000000    0.00000000    0.00000000
     atom   62 type  1   force =     0.00000000    0.00000000    0.00000000
     atom   63 type  2   force =     0.00000000    0.00000000    0.00000000
     The SCF correction term to forces
     atom    1 type  1   force =    -0.00000752   -0.00000752   -0.00000468
     atom    2 type  1   force =    -0.00001145    0.00000901    0.00000901
     atom    3 type  1   force =    -0.00000564    0.00000204   -0.00000564
     atom    4 type  1   force =     0.00000901   -0.00001145    0.00000901
     atom    5 type  1   force =     0.00000204   -0.00000564   -0.00000564
     atom    6 type  1   force =     0.00000758    0.00000758    0.00000758
     atom    7 type  1   force =     0.00000901    0.00000901   -0.00001145
     atom    8 type  1   force =    -0.00000521   -0.00000521    0.00000235
     atom    9 type  1   force =    -0.00000296   -0.00000296    0.00000726
     atom   10 type  1   force =    -0.00000320    0.00000821    0.00000224
     atom   11 type  1   force =     0.00000094    0.00000450    0.00000157
     atom   12 type  1   force =     0.00000821   -0.00000320    0.00000224
     atom   13 type  1   force =     0.00000450    0.00000094    0.00000157
     atom   14 type  1   force =    -0.00000149   -0.00000149    0.00001861
     atom   15 type  1   force =    -0.00000564   -0.00000564    0.00000204
     atom   16 type  1   force =    -0.00000250   -0.00000250   -0.00002291
     atom   17 type  1   force =     0.00000157    0.00000094    0.00000450
     atom   18 type  1   force =     0.00000157    0.00000450    0.00000094
     atom   19 type  1   force =    -0.00002291   -0.00000250   -0.00000250
     atom   20 type  1   force =     0.00000235   -0.00000521   -0.00000521
     atom   21 type  1   force =     0.00000224   -0.00000320    0.00000821
     atom   22 type  1   force =     0.00000224    0.00000821   -0.00000320
     atom   23 type  1   force =     0.00001861   -0.00000149   -0.00000149
     atom   24 type  1   force =    -0.00000296    0.00000726   -0.00000296
     atom   25 type  1   force =     0.00000094    0.00000157    0.00000450
     atom   26 type  1   force =    -0.00000521    0.00000235   -0.00000521
     atom   27 type  1   force =    -0.00000320    0.00000224    0.00000821
     atom   28 type  1   force =     0.00000450    0.00000157    0.00000094
     atom   29 type  1   force =    -0.00000250   -0.00002291   -0.00000250
     atom   30 type  1   force =     0.00000726   -0.00000296   -0.00000296
     atom   31 type  1   force =     0.00000821    0.00000224   -0.00000320
     atom   32 type  1   force =    -0.00001148    0.00000749   -0.00001148
     atom   33 type  1   force =    -0.00000168    0.00000005   -0.00000168
     atom   34 type  1   force =    -0.00001705    0.00000876    0.00000876
     atom   35 type  1   force =    -0.00000752   -0.00000468   -0.00000752
     atom   36 type  1   force =     0.00000876   -0.00001705    0.00000876
     atom   37 type  1   force =    -0.00000468   -0.00000752   -0.00000752
     atom   38 type  1   force =     0.00001179    0.00001179    0.00001179
     atom   39 type  1   force =     0.00000876    0.00000876   -0.00001705
     atom   40 type  1   force =    -0.00000040   -0.00000040    0.00000578
     atom   41 type  1   force =    -0.00000585   -0.00000585   -0.00000752
     atom   42 type  1   force =     0.00001018   -0.00000845    0.00000324
     atom   43 type  1   force =     0.00000515    0.00000183   -0.00000676
     atom   44 type  1   force =    -0.00000845    0.00001018    0.00000324
     atom   45 type  1   force =     0.00000183    0.00000515   -0.00000676
     atom   46 type  1   force =    -0.00000845    0.00000324    0.00001018
     atom   47 type  1   force =    -0.00001148   -0.00001148    0.00000749
     atom   48 type  1   force =    -0.00000752   -0.00000585   -0.00000585
     atom   49 type  1   force =    -0.00000676    0.00000515    0.00000183
     atom   50 type  1   force =    -0.00000676    0.00000183    0.00000515
     atom   51 type  1   force =     0.00000005   -0.00000168   -0.00000168
     atom   52 type  1   force =     0.00000578   -0.00000040   -0.00000040
     atom   53 type  1   force =     0.00000324    0.00001018   -0.00000845
     atom   54 type  1   force =     0.00000324   -0.00000845    0.00001018
     atom   55 type  1   force =     0.00000749   -0.00001148   -0.00001148
     atom   56 type  1   force =    -0.00000585   -0.00000752   -0.00000585
     atom   57 type  1   force =     0.00000515   -0.00000676    0.00000183
     atom   58 type  1   force =    -0.00000040    0.00000578   -0.00000040
     atom   59 type  1   force =     0.00001018    0.00000324   -0.00000845
     atom   60 type  1   force =     0.00000183   -0.00000676    0.00000515
     atom   61 type  1   force =    -0.00000168   -0.00000168    0.00000005
     atom   62 type  1   force =    -0.00000149    0.00001861   -0.00000149
     atom   63 type  2   force =     0.00000852    0.00000852    0.00000852

     Total force =     0.003141     Total SCF correction =     0.000102

     bfgs converged in   6 scf cycles and   5 bfgs steps
     (criteria: energy <  1.0E-04 Ry, force <  1.0E-03 Ry/Bohr)

     End of BFGS Geometry Optimization

     Final energy   =    -724.6938338677 Ry
Begin final coordinates

ATOMIC_POSITIONS (crystal)
C        0.375785653   0.375785653   0.873557837
C        0.500294588   0.000470898   0.000470898
C        0.499969978  -0.000488795   0.499969978
C        0.000470898   0.500294588   0.000470898
C       -0.000488795   0.499969978   0.499969978
C       -0.000123793  -0.000123793  -0.000123793
C        0.000470898   0.000470898   0.500294588
C        0.250489985   0.250489985  -0.000852395
C        0.251510454   0.251510454   0.496596302
C        0.250113173   0.749150752   0.000821732
C        0.250884904   0.748747575   0.502180701
C        0.749150752   0.250113173   0.000821732
C        0.748747575   0.250884904   0.502180701
C        0.749488116   0.749488116  -0.000942659
C        0.499969978   0.499969978  -0.000488795
C        0.748472019   0.748472019   0.498247916
C        0.502180701   0.250884904   0.748747575
C        0.502180701   0.748747575   0.250884904
C        0.498247916   0.748472019   0.748472019
C       -0.000852395   0.250489985   0.250489985
C        0.000821732   0.250113173   0.749150752
C        0.000821732   0.749150752   0.250113173
C       -0.000942659   0.749488116   0.749488116
C        0.251510454   0.496596302   0.251510454
C        0.250884904   0.502180701   0.748747575
C        0.250489985  -0.000852395   0.250489985
C        0.250113173   0.000821732   0.749150752
C        0.748747575   0.502180701   0.250884904
C        0.748472019   0.498247916   0.748472019
C        0.496596302   0.251510454   0.251510454
C        0.749150752   0.000821732   0.250113173
C        0.624170742   0.873535516   0.624170742
C        0.636462486   0.361677543   0.636462486
C        0.375655512   0.876224526   0.876224526
C        0.375785653   0.873557837   0.375785653
C        0.876224526   0.375655512   0.876224526
C        0.873557837   0.375785653   0.375785653
C        0.874453497   0.874453497   0.874453497
C        0.876224526   0.876224526   0.375655512
C        0.125368094   0.125368094   0.874453302
C        0.124673171   0.124673171   0.374874222
C        0.123481251   0.624290775   0.876194680
C        0.126501415   0.623551734   0.376396842
C        0.624290775   0.123481251   0.876194680
C        0.623551734   0.126501415   0.376396842
C        0.624290775   0.876194680   0.123481251
C        0.624170742   0.624170742   0.873535516
C        0.374874222   0.124673171   0.124673171
C        0.376396842   0.126501415   0.623551734
C        0.376396842   0.623551734   0.126501415
C        0.361677543   0.636462486   0.636462486
C        0.874453302   0.125368094   0.125368094
C        0.876194680   0.123481251   0.624290775
C        0.876194680   0.624290775   0.123481251
C        0.873535516   0.624170742   0.624170742
C        0.124673171   0.374874222   0.124673171
C        0.126501415   0.376396842   0.623551734
C        0.125368094   0.874453302   0.125368094
C        0.123481251   0.876194680   0.624290775
C        0.623551734   0.376396842   0.126501415
C        0.636462486   0.636462486   0.361677543
C        0.749488116  -0.000942659   0.749488116
N        0.368258095   0.368258095   0.368258095
End final coordinates



     Writing output data file di.save
 
     init_run     :      1.24s CPU      1.61s WALL (       1 calls)
     electrons    :    122.86s CPU    125.63s WALL (       6 calls)
     update_pot   :      0.46s CPU      0.49s WALL (       5 calls)
     forces       :      2.41s CPU      2.42s WALL (       6 calls)

     Called by init_run:
     wfcinit      :      0.74s CPU      0.81s WALL (       1 calls)
     wfcinit:atom :      0.00s CPU      0.01s WALL (       2 calls)
     wfcinit:wfcr :      0.69s CPU      0.75s WALL (       2 calls)
     potinit      :      0.08s CPU      0.09s WALL (       1 calls)

     Called by electrons:
     c_bands      :    115.14s CPU    117.77s WALL (      45 calls)
     sum_band     :      5.26s CPU      5.31s WALL (      45 calls)
     v_of_rho     :      1.77s CPU      1.79s WALL (      49 calls)
     v_h          :      0.05s CPU      0.05s WALL (      49 calls)
     v_xc         :      1.73s CPU      1.74s WALL (      49 calls)
     mix_rho      :      0.25s CPU      0.27s WALL (      45 calls)

     Called by c_bands:
     init_us_2    :      0.88s CPU      0.89s WALL (     194 calls)
     cegterg      :    104.00s CPU    106.53s WALL (      90 calls)

     Called by sum_band:

     Called by *egterg:
     h_psi        :     41.05s CPU     41.49s WALL (     513 calls)
     g_psi        :      0.26s CPU      0.27s WALL (     421 calls)
     cdiaghg      :     42.90s CPU     43.82s WALL (     497 calls)
     cegterg:over :      8.05s CPU      8.06s WALL (     421 calls)
     cegterg:upda :      6.97s CPU      7.06s WALL (     421 calls)
     cegterg:last :      2.76s CPU      2.80s WALL (      97 calls)
     cdiaghg:chol :      1.91s CPU      1.96s WALL (     497 calls)
     cdiaghg:inve :      0.78s CPU      0.78s WALL (     497 calls)
     cdiaghg:para :      6.90s CPU      7.47s WALL (     994 calls)

     Called by h_psi:
     h_psi:pot    :     40.60s CPU     41.03s WALL (     513 calls)
     h_psi:calbec :      8.67s CPU      8.76s WALL (     513 calls)
     vloc_psi     :     22.88s CPU     23.12s WALL (     513 calls)
     add_vuspsi   :      9.05s CPU      9.15s WALL (     513 calls)

     General routines
     calbec       :     10.20s CPU     10.29s WALL (     561 calls)
     fft          :      0.55s CPU      0.77s WALL (    1031 calls)
     fftw         :     24.05s CPU     24.31s WALL (   91336 calls)
 
     Parallel routines
     fft_scatter  :      7.41s CPU      7.16s WALL (   92367 calls)
 
     PWSCF        :  2m10.26s CPU     2m16.56s WALL

 
   This run was terminated on:  15:12:19   8May2020            

=------------------------------------------------------------------------------=
   JOB DONE.
=------------------------------------------------------------------------------=
