
     Program PWSCF v.6.1 (svn rev. 13369) starts on  1Jun2021 at 13:18:44 

     This program is part of the open-source Quantum ESPRESSO suite
     for quantum simulation of materials; please cite
         "P. Giannozzi et al., J. Phys.:Condens. Matter 21 395502 (2009);
          URL http://www.quantum-espresso.org", 
     in publications or presentations arising from this work. More details at
     http://www.quantum-espresso.org/quote

     Parallel version (MPI), running on    32 processors
     K-points division:     npool     =       2
     R & G space division:  proc/nbgrp/npool/nimage =      16
     Reading input from scf.in
Warning: card &IONS ignored
Warning: card / ignored

     Current dimensions of program PWSCF are:
     Max number of different atomic species (ntypx) = 10
     Max number of k-points (npk) =  40000
     Max angular momentum in pseudopotentials (lmaxx) =  3

     Subspace diagonalization in iterative solution of the eigenvalue problem:
     one sub-group per band group will be used
     scalapack distributed-memory algorithm (size of sub-group:  4*  4 procs)

 
     Parallelization info
     --------------------
     sticks:   dense  smooth     PW     G-vecs:    dense   smooth      PW
     Min         252     252     62                12125    12125    1510
     Max         254     254     63                12129    12129    1515
     Sum        4049    4049   1005               194039   194039   24207
 


     bravais-lattice index     =            1
     lattice parameter (alat)  =      13.4862  a.u.
     unit-cell volume          =    2452.8358 (a.u.)^3
     number of atoms/cell      =           63
     number of atomic types    =            2
     number of electrons       =       254.00 (up: 127.00, down: 127.00)
     number of Kohn-Sham states=          152
     kinetic-energy cutoff     =      70.0000  Ry
     charge density cutoff     =     280.0000  Ry
     convergence threshold     =      1.0E-06
     mixing beta               =       0.5000
     number of iterations used =            8  plain     mixing
     Exchange-correlation      = PBE ( 1  4  3  4 0 0)

     celldm(1)=  13.486197  celldm(2)=   0.000000  celldm(3)=   0.000000
     celldm(4)=   0.000000  celldm(5)=   0.000000  celldm(6)=   0.000000

     crystal axes: (cart. coord. in units of alat)
               a(1) = (   1.000000   0.000000   0.000000 )  
               a(2) = (   0.000000   1.000000   0.000000 )  
               a(3) = (   0.000000   0.000000   1.000000 )  

     reciprocal axes: (cart. coord. in units 2 pi/alat)
               b(1) = (  1.000000  0.000000  0.000000 )  
               b(2) = (  0.000000  1.000000  0.000000 )  
               b(3) = (  0.000000  0.000000  1.000000 )  


     PseudoPot. # 1 for C  read from file:
     /export/data/share/tjsmart/Pseudo/C_ONCV_PBE-1.0.upf
     MD5 check sum: 72b63e32b2fd29504de26a4901699f60
     Pseudo is Norm-conserving, Zval =  4.0
     Generated using ONCVPSP code by D. R. Hamann
     Using radial grid of 1248 points,  4 beta functions with: 
                l(1) =   0
                l(2) =   0
                l(3) =   1
                l(4) =   1

     PseudoPot. # 2 for N  read from file:
     /export/data/share/tjsmart/Pseudo/N_ONCV_PBE-1.0.upf
     MD5 check sum: 09890da6b2972017450f7114a6086fad
     Pseudo is Norm-conserving, Zval =  5.0
     Generated using ONCVPSP code by D. R. Hamann
     Using radial grid of 1058 points,  4 beta functions with: 
                l(1) =   0
                l(2) =   0
                l(3) =   1
                l(4) =   1

     atomic species   valence    mass     pseudopotential
        C              4.00    12.01110     C ( 1.00)
        N              5.00    14.00670     N ( 1.00)

     Starting magnetic structure 
     atomic species   magnetization
        C            0.200
        N            0.200

      6 Sym. Ops. (no inversion) found


                                    s                        frac. trans.

      isym =  1     identity                                     

 cryst.   s( 1) = (     1          0          0      )
                  (     0          1          0      )
                  (     0          0          1      )

 cart.    s( 1) = (  1.0000000  0.0000000  0.0000000 )
                  (  0.0000000  1.0000000  0.0000000 )
                  (  0.0000000  0.0000000  1.0000000 )


      isym =  2     120 deg rotation - cart. axis [-1,-1,-1]     

 cryst.   s( 2) = (     0          0          1      )
                  (     1          0          0      )
                  (     0          1          0      )

 cart.    s( 2) = (  0.0000000  1.0000000  0.0000000 )
                  (  0.0000000  0.0000000  1.0000000 )
                  (  1.0000000  0.0000000  0.0000000 )


      isym =  3     120 deg rotation - cart. axis [1,1,1]        

 cryst.   s( 3) = (     0          1          0      )
                  (     0          0          1      )
                  (     1          0          0      )

 cart.    s( 3) = (  0.0000000  0.0000000  1.0000000 )
                  (  1.0000000  0.0000000  0.0000000 )
                  (  0.0000000  1.0000000  0.0000000 )


      isym =  4     inv. 180 deg rotation - cart. axis [1,-1,0]  

 cryst.   s( 4) = (     0          1          0      )
                  (     1          0          0      )
                  (     0          0          1      )

 cart.    s( 4) = (  0.0000000  1.0000000  0.0000000 )
                  (  1.0000000  0.0000000  0.0000000 )
                  (  0.0000000  0.0000000  1.0000000 )


      isym =  5     inv. 180 deg rotation - cart. axis [-1,0,1]  

 cryst.   s( 5) = (     0          0          1      )
                  (     0          1          0      )
                  (     1          0          0      )

 cart.    s( 5) = (  0.0000000  0.0000000  1.0000000 )
                  (  0.0000000  1.0000000  0.0000000 )
                  (  1.0000000  0.0000000  0.0000000 )


      isym =  6     inv. 180 deg rotation - cart. axis [0,1,-1]  

 cryst.   s( 6) = (     1          0          0      )
                  (     0          0          1      )
                  (     0          1          0      )

 cart.    s( 6) = (  1.0000000  0.0000000  0.0000000 )
                  (  0.0000000  0.0000000  1.0000000 )
                  (  0.0000000  1.0000000  0.0000000 )


     point group C_3v (3m)  
     there are  3 classes
     the character table:

       E     2C3   3s_v 
A_1    1.00  1.00  1.00
A_2    1.00  1.00 -1.00
E      2.00 -1.00  0.00

     the symmetry operations in each class and the name of the first element:

     E        1
          identity                                               
     2C3      2    3
          120 deg rotation - cart. axis [-1,-1,-1]               
     3s_v     4    5    6
          inv. 180 deg rotation - cart. axis [1,-1,0]            

   Cartesian axes

     site n.     atom                  positions (alat units)
         1           C   tau(   1) = (   0.3757857   0.3757857   0.8735578  )
         2           C   tau(   2) = (   0.5002946   0.0004709   0.0004709  )
         3           C   tau(   3) = (   0.4999700  -0.0004888   0.4999700  )
         4           C   tau(   4) = (   0.0004709   0.5002946   0.0004709  )
         5           C   tau(   5) = (  -0.0004888   0.4999700   0.4999700  )
         6           C   tau(   6) = (  -0.0001238  -0.0001238  -0.0001238  )
         7           C   tau(   7) = (   0.0004709   0.0004709   0.5002946  )
         8           C   tau(   8) = (   0.2504900   0.2504900  -0.0008524  )
         9           C   tau(   9) = (   0.2515105   0.2515105   0.4965963  )
        10           C   tau(  10) = (   0.2501132   0.7491508   0.0008217  )
        11           C   tau(  11) = (   0.2508849   0.7487476   0.5021807  )
        12           C   tau(  12) = (   0.7491508   0.2501132   0.0008217  )
        13           C   tau(  13) = (   0.7487476   0.2508849   0.5021807  )
        14           C   tau(  14) = (   0.7494881   0.7494881  -0.0009427  )
        15           C   tau(  15) = (   0.4999700   0.4999700  -0.0004888  )
        16           C   tau(  16) = (   0.7484720   0.7484720   0.4982479  )
        17           C   tau(  17) = (   0.5021807   0.2508849   0.7487476  )
        18           C   tau(  18) = (   0.5021807   0.7487476   0.2508849  )
        19           C   tau(  19) = (   0.4982479   0.7484720   0.7484720  )
        20           C   tau(  20) = (  -0.0008524   0.2504900   0.2504900  )
        21           C   tau(  21) = (   0.0008217   0.2501132   0.7491508  )
        22           C   tau(  22) = (   0.0008217   0.7491508   0.2501132  )
        23           C   tau(  23) = (  -0.0009427   0.7494881   0.7494881  )
        24           C   tau(  24) = (   0.2515105   0.4965963   0.2515105  )
        25           C   tau(  25) = (   0.2508849   0.5021807   0.7487476  )
        26           C   tau(  26) = (   0.2504900  -0.0008524   0.2504900  )
        27           C   tau(  27) = (   0.2501132   0.0008217   0.7491508  )
        28           C   tau(  28) = (   0.7487476   0.5021807   0.2508849  )
        29           C   tau(  29) = (   0.7484720   0.4982479   0.7484720  )
        30           C   tau(  30) = (   0.4965963   0.2515105   0.2515105  )
        31           C   tau(  31) = (   0.7491508   0.0008217   0.2501132  )
        32           C   tau(  32) = (   0.6241707   0.8735355   0.6241707  )
        33           C   tau(  33) = (   0.6364625   0.3616775   0.6364625  )
        34           C   tau(  34) = (   0.3756555   0.8762245   0.8762245  )
        35           C   tau(  35) = (   0.3757857   0.8735578   0.3757857  )
        36           C   tau(  36) = (   0.8762245   0.3756555   0.8762245  )
        37           C   tau(  37) = (   0.8735578   0.3757857   0.3757857  )
        38           C   tau(  38) = (   0.8744535   0.8744535   0.8744535  )
        39           C   tau(  39) = (   0.8762245   0.8762245   0.3756555  )
        40           C   tau(  40) = (   0.1253681   0.1253681   0.8744533  )
        41           C   tau(  41) = (   0.1246732   0.1246732   0.3748742  )
        42           C   tau(  42) = (   0.1234813   0.6242908   0.8761947  )
        43           C   tau(  43) = (   0.1265014   0.6235517   0.3763968  )
        44           C   tau(  44) = (   0.6242908   0.1234813   0.8761947  )
        45           C   tau(  45) = (   0.6235517   0.1265014   0.3763968  )
        46           C   tau(  46) = (   0.6242908   0.8761947   0.1234813  )
        47           C   tau(  47) = (   0.6241707   0.6241707   0.8735355  )
        48           C   tau(  48) = (   0.3748742   0.1246732   0.1246732  )
        49           C   tau(  49) = (   0.3763968   0.1265014   0.6235517  )
        50           C   tau(  50) = (   0.3763968   0.6235517   0.1265014  )
        51           C   tau(  51) = (   0.3616775   0.6364625   0.6364625  )
        52           C   tau(  52) = (   0.8744533   0.1253681   0.1253681  )
        53           C   tau(  53) = (   0.8761947   0.1234813   0.6242908  )
        54           C   tau(  54) = (   0.8761947   0.6242908   0.1234813  )
        55           C   tau(  55) = (   0.8735355   0.6241707   0.6241707  )
        56           C   tau(  56) = (   0.1246732   0.3748742   0.1246732  )
        57           C   tau(  57) = (   0.1265014   0.3763968   0.6235517  )
        58           C   tau(  58) = (   0.1253681   0.8744533   0.1253681  )
        59           C   tau(  59) = (   0.1234813   0.8761947   0.6242908  )
        60           C   tau(  60) = (   0.6235517   0.3763968   0.1265014  )
        61           C   tau(  61) = (   0.6364625   0.6364625   0.3616775  )
        62           C   tau(  62) = (   0.7494881  -0.0009427   0.7494881  )
        63           N   tau(  63) = (   0.3682581   0.3682581   0.3682581  )

   Crystallographic axes

     site n.     atom                  positions (cryst. coord.)
         1           C   tau(   1) = (  0.3757857  0.3757857  0.8735578  )
         2           C   tau(   2) = (  0.5002946  0.0004709  0.0004709  )
         3           C   tau(   3) = (  0.4999700 -0.0004888  0.4999700  )
         4           C   tau(   4) = (  0.0004709  0.5002946  0.0004709  )
         5           C   tau(   5) = ( -0.0004888  0.4999700  0.4999700  )
         6           C   tau(   6) = ( -0.0001238 -0.0001238 -0.0001238  )
         7           C   tau(   7) = (  0.0004709  0.0004709  0.5002946  )
         8           C   tau(   8) = (  0.2504900  0.2504900 -0.0008524  )
         9           C   tau(   9) = (  0.2515105  0.2515105  0.4965963  )
        10           C   tau(  10) = (  0.2501132  0.7491508  0.0008217  )
        11           C   tau(  11) = (  0.2508849  0.7487476  0.5021807  )
        12           C   tau(  12) = (  0.7491508  0.2501132  0.0008217  )
        13           C   tau(  13) = (  0.7487476  0.2508849  0.5021807  )
        14           C   tau(  14) = (  0.7494881  0.7494881 -0.0009427  )
        15           C   tau(  15) = (  0.4999700  0.4999700 -0.0004888  )
        16           C   tau(  16) = (  0.7484720  0.7484720  0.4982479  )
        17           C   tau(  17) = (  0.5021807  0.2508849  0.7487476  )
        18           C   tau(  18) = (  0.5021807  0.7487476  0.2508849  )
        19           C   tau(  19) = (  0.4982479  0.7484720  0.7484720  )
        20           C   tau(  20) = ( -0.0008524  0.2504900  0.2504900  )
        21           C   tau(  21) = (  0.0008217  0.2501132  0.7491508  )
        22           C   tau(  22) = (  0.0008217  0.7491508  0.2501132  )
        23           C   tau(  23) = ( -0.0009427  0.7494881  0.7494881  )
        24           C   tau(  24) = (  0.2515105  0.4965963  0.2515105  )
        25           C   tau(  25) = (  0.2508849  0.5021807  0.7487476  )
        26           C   tau(  26) = (  0.2504900 -0.0008524  0.2504900  )
        27           C   tau(  27) = (  0.2501132  0.0008217  0.7491508  )
        28           C   tau(  28) = (  0.7487476  0.5021807  0.2508849  )
        29           C   tau(  29) = (  0.7484720  0.4982479  0.7484720  )
        30           C   tau(  30) = (  0.4965963  0.2515105  0.2515105  )
        31           C   tau(  31) = (  0.7491508  0.0008217  0.2501132  )
        32           C   tau(  32) = (  0.6241707  0.8735355  0.6241707  )
        33           C   tau(  33) = (  0.6364625  0.3616775  0.6364625  )
        34           C   tau(  34) = (  0.3756555  0.8762245  0.8762245  )
        35           C   tau(  35) = (  0.3757857  0.8735578  0.3757857  )
        36           C   tau(  36) = (  0.8762245  0.3756555  0.8762245  )
        37           C   tau(  37) = (  0.8735578  0.3757857  0.3757857  )
        38           C   tau(  38) = (  0.8744535  0.8744535  0.8744535  )
        39           C   tau(  39) = (  0.8762245  0.8762245  0.3756555  )
        40           C   tau(  40) = (  0.1253681  0.1253681  0.8744533  )
        41           C   tau(  41) = (  0.1246732  0.1246732  0.3748742  )
        42           C   tau(  42) = (  0.1234813  0.6242908  0.8761947  )
        43           C   tau(  43) = (  0.1265014  0.6235517  0.3763968  )
        44           C   tau(  44) = (  0.6242908  0.1234813  0.8761947  )
        45           C   tau(  45) = (  0.6235517  0.1265014  0.3763968  )
        46           C   tau(  46) = (  0.6242908  0.8761947  0.1234813  )
        47           C   tau(  47) = (  0.6241707  0.6241707  0.8735355  )
        48           C   tau(  48) = (  0.3748742  0.1246732  0.1246732  )
        49           C   tau(  49) = (  0.3763968  0.1265014  0.6235517  )
        50           C   tau(  50) = (  0.3763968  0.6235517  0.1265014  )
        51           C   tau(  51) = (  0.3616775  0.6364625  0.6364625  )
        52           C   tau(  52) = (  0.8744533  0.1253681  0.1253681  )
        53           C   tau(  53) = (  0.8761947  0.1234813  0.6242908  )
        54           C   tau(  54) = (  0.8761947  0.6242908  0.1234813  )
        55           C   tau(  55) = (  0.8735355  0.6241707  0.6241707  )
        56           C   tau(  56) = (  0.1246732  0.3748742  0.1246732  )
        57           C   tau(  57) = (  0.1265014  0.3763968  0.6235517  )
        58           C   tau(  58) = (  0.1253681  0.8744533  0.1253681  )
        59           C   tau(  59) = (  0.1234813  0.8761947  0.6242908  )
        60           C   tau(  60) = (  0.6235517  0.3763968  0.1265014  )
        61           C   tau(  61) = (  0.6364625  0.6364625  0.3616775  )
        62           C   tau(  62) = (  0.7494881 -0.0009427  0.7494881  )
        63           N   tau(  63) = (  0.3682581  0.3682581  0.3682581  )

     number of k points=     1  Marzari-Vanderbilt smearing, width (Ry)=  0.0010
                       cart. coord. in units 2pi/alat
        k(    1) = (   0.0000000   0.0000000   0.0000000), wk =   1.0000000

                       cryst. coord.
        k(    1) = (   0.0000000   0.0000000   0.0000000), wk =   1.0000000

     Dense  grid:   194039 G-vectors     FFT dimensions: (  72,  72,  72)

     Estimated max dynamical RAM per process >      42.63MB

     Estimated total allocated dynamical RAM >    1364.05MB
     Generating pointlists ...
     new r_m :   0.0855 (alat units)  1.1524 (a.u.) for type    1
     new r_m :   0.0863 (alat units)  1.1633 (a.u.) for type    2

     Initial potential from superposition of free atoms

     starting charge  252.99722, renormalised to  254.00000
     Starting wfc are  252 randomized atomic wfcs

     total cpu time spent up to now is        3.9 secs

     per-process dynamical memory:    49.0 Mb

     Self-consistent Calculation

     iteration #  1     ecut=    70.00 Ry     beta=0.50
     Davidson diagonalization with overlap
     ethr =  1.00E-02,  avg # of iterations =  3.0

     total cpu time spent up to now is        5.0 secs

     total energy              =    -723.95692410 Ry
     Harris-Foulkes estimate   =    -724.47408261 Ry
     estimated scf accuracy    <       4.40052666 Ry

     total magnetization       =    -0.00 Bohr mag/cell
     absolute magnetization    =     0.89 Bohr mag/cell

     iteration #  2     ecut=    70.00 Ry     beta=0.50
     Davidson diagonalization with overlap
     ethr =  1.73E-03,  avg # of iterations =  2.0

     total cpu time spent up to now is        5.7 secs

     total energy              =    -724.27195383 Ry
     Harris-Foulkes estimate   =    -724.20979297 Ry
     estimated scf accuracy    <       0.70874333 Ry

     total magnetization       =    -0.00 Bohr mag/cell
     absolute magnetization    =     0.33 Bohr mag/cell

     iteration #  3     ecut=    70.00 Ry     beta=0.50
     Davidson diagonalization with overlap
     ethr =  2.79E-04,  avg # of iterations =  4.0

     total cpu time spent up to now is        6.7 secs

     total energy              =    -724.34156348 Ry
     Harris-Foulkes estimate   =    -724.39421561 Ry
     estimated scf accuracy    <       0.18485918 Ry

     total magnetization       =    -0.00 Bohr mag/cell
     absolute magnetization    =     0.12 Bohr mag/cell

     iteration #  4     ecut=    70.00 Ry     beta=0.50
     Davidson diagonalization with overlap
     ethr =  7.28E-05,  avg # of iterations =  8.5

     total cpu time spent up to now is        8.1 secs

     total energy              =    -724.38598747 Ry
     Harris-Foulkes estimate   =    -724.38284404 Ry
     estimated scf accuracy    <       0.01206128 Ry

     total magnetization       =     0.00 Bohr mag/cell
     absolute magnetization    =     0.07 Bohr mag/cell

     iteration #  5     ecut=    70.00 Ry     beta=0.50
     Davidson diagonalization with overlap
     ethr =  4.75E-06,  avg # of iterations = 10.5

     total cpu time spent up to now is        9.9 secs

     total energy              =    -724.38904961 Ry
     Harris-Foulkes estimate   =    -724.38889062 Ry
     estimated scf accuracy    <       0.00154634 Ry

     total magnetization       =    -0.00 Bohr mag/cell
     absolute magnetization    =     0.04 Bohr mag/cell

     iteration #  6     ecut=    70.00 Ry     beta=0.50
     Davidson diagonalization with overlap
     ethr =  6.09E-07,  avg # of iterations =  9.0

     total cpu time spent up to now is       11.3 secs

     total energy              =    -724.38933481 Ry
     Harris-Foulkes estimate   =    -724.38935282 Ry
     estimated scf accuracy    <       0.00019315 Ry

     total magnetization       =    -0.00 Bohr mag/cell
     absolute magnetization    =     0.02 Bohr mag/cell

     iteration #  7     ecut=    70.00 Ry     beta=0.50
     Davidson diagonalization with overlap
     ethr =  7.60E-08,  avg # of iterations =  3.0

     total cpu time spent up to now is       12.3 secs

     total energy              =    -724.38938891 Ry
     Harris-Foulkes estimate   =    -724.38939574 Ry
     estimated scf accuracy    <       0.00003131 Ry

     total magnetization       =    -0.00 Bohr mag/cell
     absolute magnetization    =     0.01 Bohr mag/cell

     iteration #  8     ecut=    70.00 Ry     beta=0.50
     Davidson diagonalization with overlap
     ethr =  1.23E-08,  avg # of iterations =  3.0

     total cpu time spent up to now is       13.1 secs

     total energy              =    -724.38939625 Ry
     Harris-Foulkes estimate   =    -724.38939588 Ry
     estimated scf accuracy    <       0.00000238 Ry

     total magnetization       =     0.00 Bohr mag/cell
     absolute magnetization    =     0.01 Bohr mag/cell

     iteration #  9     ecut=    70.00 Ry     beta=0.50
     Davidson diagonalization with overlap
     ethr =  9.36E-10,  avg # of iterations =  3.0
 
     Magnetic moment per site:
     atom:    1    charge:    1.8263    magn:   -0.0000    constr:    0.0000
     atom:    2    charge:    1.8471    magn:   -0.0000    constr:    0.0000
     atom:    3    charge:    1.8350    magn:    0.0000    constr:    0.0000
     atom:    4    charge:    1.8471    magn:   -0.0000    constr:    0.0000
     atom:    5    charge:    1.8350    magn:    0.0000    constr:    0.0000
     atom:    6    charge:    1.8248    magn:    0.0000    constr:    0.0000
     atom:    7    charge:    1.8471    magn:   -0.0000    constr:    0.0000
     atom:    8    charge:    1.8279    magn:    0.0000    constr:    0.0000
     atom:    9    charge:    1.7999    magn:   -0.0001    constr:    0.0000
     atom:   10    charge:    1.8232    magn:    0.0000    constr:    0.0000
     atom:   11    charge:    1.8382    magn:    0.0000    constr:    0.0000
     atom:   12    charge:    1.8232    magn:    0.0000    constr:    0.0000
     atom:   13    charge:    1.8382    magn:    0.0000    constr:    0.0000
     atom:   14    charge:    1.8267    magn:    0.0000    constr:    0.0000
     atom:   15    charge:    1.8350    magn:    0.0000    constr:    0.0000
     atom:   16    charge:    1.8334    magn:    0.0000    constr:    0.0000
     atom:   17    charge:    1.8382    magn:    0.0000    constr:    0.0000
     atom:   18    charge:    1.8382    magn:    0.0000    constr:    0.0000
     atom:   19    charge:    1.8334    magn:    0.0000    constr:    0.0000
     atom:   20    charge:    1.8279    magn:    0.0000    constr:    0.0000
     atom:   21    charge:    1.8232    magn:    0.0000    constr:    0.0000
     atom:   22    charge:    1.8232    magn:    0.0000    constr:    0.0000
     atom:   23    charge:    1.8267    magn:    0.0000    constr:    0.0000
     atom:   24    charge:    1.7999    magn:   -0.0001    constr:    0.0000
     atom:   25    charge:    1.8382    magn:    0.0000    constr:    0.0000
     atom:   26    charge:    1.8279    magn:    0.0000    constr:    0.0000
     atom:   27    charge:    1.8232    magn:    0.0000    constr:    0.0000
     atom:   28    charge:    1.8382    magn:    0.0000    constr:    0.0000
     atom:   29    charge:    1.8334    magn:    0.0000    constr:    0.0000
     atom:   30    charge:    1.7999    magn:   -0.0001    constr:    0.0000
     atom:   31    charge:    1.8232    magn:    0.0000    constr:    0.0000
     atom:   32    charge:    1.8279    magn:   -0.0000    constr:    0.0000
     atom:   33    charge:    1.8509    magn:    0.0000    constr:    0.0000
     atom:   34    charge:    1.8243    magn:    0.0000    constr:    0.0000
     atom:   35    charge:    1.8263    magn:   -0.0000    constr:    0.0000
     atom:   36    charge:    1.8243    magn:    0.0000    constr:    0.0000
     atom:   37    charge:    1.8263    magn:   -0.0000    constr:    0.0000
     atom:   38    charge:    1.8319    magn:   -0.0000    constr:    0.0000
     atom:   39    charge:    1.8243    magn:    0.0000    constr:    0.0000
     atom:   40    charge:    1.8309    magn:    0.0000    constr:    0.0000
     atom:   41    charge:    1.8349    magn:    0.0000    constr:    0.0000
     atom:   42    charge:    1.8310    magn:    0.0000    constr:    0.0000
     atom:   43    charge:    1.8261    magn:    0.0000    constr:    0.0000
     atom:   44    charge:    1.8310    magn:    0.0000    constr:    0.0000
     atom:   45    charge:    1.8261    magn:    0.0000    constr:    0.0000
     atom:   46    charge:    1.8310    magn:    0.0000    constr:    0.0000
     atom:   47    charge:    1.8279    magn:   -0.0000    constr:    0.0000
     atom:   48    charge:    1.8349    magn:    0.0000    constr:    0.0000
     atom:   49    charge:    1.8261    magn:    0.0000    constr:    0.0000
     atom:   50    charge:    1.8261    magn:    0.0000    constr:    0.0000
     atom:   51    charge:    1.8509    magn:    0.0000    constr:    0.0000
     atom:   52    charge:    1.8309    magn:    0.0000    constr:    0.0000
     atom:   53    charge:    1.8310    magn:    0.0000    constr:    0.0000
     atom:   54    charge:    1.8310    magn:    0.0000    constr:    0.0000
     atom:   55    charge:    1.8279    magn:   -0.0000    constr:    0.0000
     atom:   56    charge:    1.8349    magn:    0.0000    constr:    0.0000
     atom:   57    charge:    1.8261    magn:    0.0000    constr:    0.0000
     atom:   58    charge:    1.8309    magn:    0.0000    constr:    0.0000
     atom:   59    charge:    1.8310    magn:    0.0000    constr:    0.0000
     atom:   60    charge:    1.8261    magn:    0.0000    constr:    0.0000
     atom:   61    charge:    1.8509    magn:    0.0000    constr:    0.0000
     atom:   62    charge:    1.8267    magn:    0.0000    constr:    0.0000
     atom:   63    charge:    2.9522    magn:    0.0007    constr:    0.0000

     total cpu time spent up to now is       14.1 secs

     End of self-consistent calculation

 ------ SPIN UP ------------


          k = 0.0000 0.0000 0.0000 ( 24207 PWs)   bands (ev):

    -8.5275  -6.8539  -6.2688  -6.2688  -6.1572  -6.1572  -5.8613  -4.8781
    -4.1216  -4.1216  -4.0931  -4.0931  -4.0199  -4.0020  -4.0020  -3.9278
    -3.8556  -3.8556  -3.3516  -2.9326  -2.6532  -2.6532  -2.0669  -0.3498
    -0.3498  -0.3304  -0.3017  -0.0781   0.1863   0.1863   0.2909   0.2909
     0.3611   0.6180   0.8452   0.8452   0.9700   0.9866   0.9866   1.0386
     1.0459   1.0459   1.3632   1.3632   3.0973   3.9654   3.9654   4.0688
     4.2047   4.2047   4.2049   4.2574   4.2574   4.2620   4.4204   4.4204
     4.4825   4.4825   4.5589   4.6541   4.6565   4.6578   4.6578   4.7664
     4.7664   4.8881   4.9503   4.9503   5.0586   5.2078   5.2078   5.2919
     5.3408   5.3408   5.3748   5.4062   5.4062   6.0311   6.0311   6.0744
     6.6395   6.6395   6.7081   7.0139   7.0205   7.0205   7.5617   8.3454
     8.3454   8.4029   8.4544   8.4544   8.6524   8.6524   8.7724   8.8009
     8.8009   8.8222   8.8703   8.8703   8.8708   9.2648   9.2707   9.2707
     9.6846   9.6846   9.8659   9.8808   9.9039   9.9099   9.9099   9.9466
     9.9466   9.9763   9.9907   9.9907  10.0755  10.0755  10.2759  10.2999
    10.2999  11.1152  12.3565  12.4585  12.4585  14.0725  15.3095  15.3095
    17.2993  17.3472  17.3472  17.4780  17.5489  17.5489  17.8137  17.9050
    17.9050  18.0176  18.0176  18.3712  18.9347  18.9347  18.9720  20.6221
    20.7758  20.7758  20.8261  20.8966  20.8967  20.9817  20.9893  20.9894

     occupation numbers 
     1.0000   1.0000   1.0000   1.0000   1.0000   1.0000   1.0000   1.0000
     1.0000   1.0000   1.0000   1.0000   1.0000   1.0000   1.0000   1.0000
     1.0000   1.0000   1.0000   1.0000   1.0000   1.0000   1.0000   1.0000
     1.0000   1.0000   1.0000   1.0000   1.0000   1.0000   1.0000   1.0000
     1.0000   1.0000   1.0000   1.0000   1.0000   1.0000   1.0000   1.0000
     1.0000   1.0000   1.0000   1.0000   1.0000   1.0000   1.0000   1.0000
     1.0000   1.0000   1.0000   1.0000   1.0000   1.0000   1.0000   1.0000
     1.0000   1.0000   1.0000   1.0000   1.0000   1.0000   1.0000   1.0000
     1.0000   1.0000   1.0000   1.0000   1.0000   1.0000   1.0000   1.0000
     1.0000   1.0000   1.0000   1.0000   1.0000   1.0000   1.0000   1.0000
     1.0000   1.0000   1.0000   1.0000   1.0000   1.0000   1.0000   1.0000
     1.0000   1.0000   1.0000   1.0000   1.0000   1.0000   1.0000   1.0000
     1.0000   1.0000   1.0000   1.0000   1.0000   1.0000   1.0000   1.0000
     1.0000   1.0000   1.0000   1.0000   1.0000   1.0000   1.0000   1.0000
     1.0000   1.0000   1.0000   1.0000   1.0000   1.0000   1.0000   1.0000
     1.0000   1.0000   1.0000   1.0000   1.0000   1.0000   0.5000   0.5000
     0.0000   0.0000   0.0000   0.0000   0.0000   0.0000   0.0000   0.0000
     0.0000   0.0000   0.0000   0.0000   0.0000   0.0000   0.0000   0.0000
     0.0000   0.0000   0.0000   0.0000   0.0000   0.0000   0.0000   0.0000

 ------ SPIN DOWN ----------


          k = 0.0000 0.0000 0.0000 ( 24207 PWs)   bands (ev):

    -8.5275  -6.8533  -6.2689  -6.2689  -6.1573  -6.1573  -5.8614  -4.8777
    -4.1217  -4.1217  -4.0933  -4.0933  -4.0200  -4.0021  -4.0021  -3.9279
    -3.8557  -3.8557  -3.3517  -2.9325  -2.6533  -2.6533  -2.0668  -0.3500
    -0.3500  -0.3305  -0.3018  -0.0778   0.1862   0.1862   0.2908   0.2908
     0.3610   0.6180   0.8451   0.8451   0.9700   0.9866   0.9866   1.0386
     1.0458   1.0458   1.3631   1.3631   3.0972   3.9655   3.9655   4.0688
     4.2047   4.2047   4.2048   4.2573   4.2573   4.2620   4.4203   4.4203
     4.4824   4.4824   4.5588   4.6540   4.6564   4.6577   4.6577   4.7664
     4.7664   4.8881   4.9502   4.9502   5.0585   5.2078   5.2078   5.2919
     5.3407   5.3407   5.3748   5.4062   5.4062   6.0310   6.0310   6.0744
     6.6395   6.6395   6.7081   7.0139   7.0205   7.0205   7.5616   8.3456
     8.3456   8.4028   8.4544   8.4544   8.6524   8.6524   8.7723   8.8009
     8.8009   8.8222   8.8702   8.8702   8.8708   9.2648   9.2707   9.2707
     9.6846   9.6846   9.8659   9.8808   9.9039   9.9099   9.9099   9.9466
     9.9466   9.9763   9.9907   9.9907  10.0755  10.0755  10.2759  10.3000
    10.3000  11.1157  12.3565  12.4585  12.4585  14.0732  15.3092  15.3092
    17.2994  17.3472  17.3472  17.4780  17.5489  17.5489  17.8138  17.9050
    17.9050  18.0175  18.0175  18.3710  18.9347  18.9347  18.9721  20.6224
    20.7758  20.7758  20.8262  20.8967  20.8967  20.9817  20.9893  20.9895

     occupation numbers 
     1.0000   1.0000   1.0000   1.0000   1.0000   1.0000   1.0000   1.0000
     1.0000   1.0000   1.0000   1.0000   1.0000   1.0000   1.0000   1.0000
     1.0000   1.0000   1.0000   1.0000   1.0000   1.0000   1.0000   1.0000
     1.0000   1.0000   1.0000   1.0000   1.0000   1.0000   1.0000   1.0000
     1.0000   1.0000   1.0000   1.0000   1.0000   1.0000   1.0000   1.0000
     1.0000   1.0000   1.0000   1.0000   1.0000   1.0000   1.0000   1.0000
     1.0000   1.0000   1.0000   1.0000   1.0000   1.0000   1.0000   1.0000
     1.0000   1.0000   1.0000   1.0000   1.0000   1.0000   1.0000   1.0000
     1.0000   1.0000   1.0000   1.0000   1.0000   1.0000   1.0000   1.0000
     1.0000   1.0000   1.0000   1.0000   1.0000   1.0000   1.0000   1.0000
     1.0000   1.0000   1.0000   1.0000   1.0000   1.0000   1.0000   1.0000
     1.0000   1.0000   1.0000   1.0000   1.0000   1.0000   1.0000   1.0000
     1.0000   1.0000   1.0000   1.0000   1.0000   1.0000   1.0000   1.0000
     1.0000   1.0000   1.0000   1.0000   1.0000   1.0000   1.0000   1.0000
     1.0000   1.0000   1.0000   1.0000   1.0000   1.0000   1.0000   1.0000
     1.0000   1.0000   1.0000   1.0000   1.0000   1.0000   0.5000   0.5000
     0.0000   0.0000   0.0000   0.0000   0.0000   0.0000   0.0000   0.0000
     0.0000   0.0000   0.0000   0.0000   0.0000   0.0000   0.0000   0.0000
     0.0000   0.0000   0.0000   0.0000   0.0000   0.0000   0.0000   0.0000

     the spin up/dw Fermi energies are    15.3114   15.3111 ev

!    total energy              =    -724.38939747 Ry
     Harris-Foulkes estimate   =    -724.38939699 Ry
     estimated scf accuracy    <       0.00000043 Ry

     The total energy is the sum of the following terms:

     one-electron contribution =     232.07956550 Ry
     hartree contribution      =      70.13040979 Ry
     xc contribution           =    -226.60835086 Ry
     ewald contribution        =    -799.99036553 Ry
     smearing contrib. (-TS)   =      -0.00065637 Ry

     total magnetization       =     0.00 Bohr mag/cell
     absolute magnetization    =     0.00 Bohr mag/cell

     convergence has been achieved in   9 iterations

     Writing output data file di.save
 
     init_run     :      2.29s CPU      2.58s WALL (       1 calls)
     electrons    :      9.99s CPU     10.30s WALL (       1 calls)

     Called by init_run:
     wfcinit      :      0.37s CPU      0.40s WALL (       1 calls)
     wfcinit:atom :      0.00s CPU      0.00s WALL (       1 calls)
     wfcinit:wfcr :      0.35s CPU      0.37s WALL (       1 calls)
     potinit      :      0.08s CPU      0.09s WALL (       1 calls)

     Called by electrons:
     c_bands      :      8.99s CPU      9.27s WALL (       9 calls)
     sum_band     :      0.54s CPU      0.55s WALL (       9 calls)
     v_of_rho     :      0.37s CPU      0.38s WALL (      10 calls)
     v_h          :      0.01s CPU      0.01s WALL (      10 calls)
     v_xc         :      0.36s CPU      0.37s WALL (      10 calls)
     mix_rho      :      0.06s CPU      0.06s WALL (       9 calls)

     Called by c_bands:
     init_us_2    :      0.08s CPU      0.09s WALL (      19 calls)
     cegterg      :      8.53s CPU      8.81s WALL (       9 calls)

     Called by sum_band:

     Called by *egterg:
     h_psi        :      4.09s CPU      4.14s WALL (      56 calls)
     g_psi        :      0.02s CPU      0.02s WALL (      46 calls)
     cdiaghg      :      2.70s CPU      2.84s WALL (      55 calls)
     cegterg:over :      0.75s CPU      0.76s WALL (      46 calls)
     cegterg:upda :      0.75s CPU      0.76s WALL (      46 calls)
     cegterg:last :      0.26s CPU      0.26s WALL (       9 calls)
     cdiaghg:chol :      0.22s CPU      0.25s WALL (      55 calls)
     cdiaghg:inve :      0.15s CPU      0.15s WALL (      55 calls)
     cdiaghg:para :      0.22s CPU      0.25s WALL (     110 calls)

     Called by h_psi:
     h_psi:pot    :      4.03s CPU      4.09s WALL (      56 calls)
     h_psi:calbec :      0.87s CPU      0.89s WALL (      56 calls)
     vloc_psi     :      2.26s CPU      2.29s WALL (      56 calls)
     add_vuspsi   :      0.89s CPU      0.91s WALL (      56 calls)

     General routines
     calbec       :      0.87s CPU      0.89s WALL (      56 calls)
     fft          :      0.13s CPU      0.28s WALL (     207 calls)
     fftw         :      2.46s CPU      2.41s WALL (    9170 calls)
 
     Parallel routines
     fft_scatter  :      0.74s CPU      0.73s WALL (    9377 calls)
 
     PWSCF        :    12.92s CPU        14.91s WALL

 
   This run was terminated on:  13:18:59   1Jun2021            

=------------------------------------------------------------------------------=
   JOB DONE.
=------------------------------------------------------------------------------=
