
     Program PWSCF v.6.1 (svn rev. 13369) starts on  1Jun2021 at 13:18:55 

     This program is part of the open-source Quantum ESPRESSO suite
     for quantum simulation of materials; please cite
         "P. Giannozzi et al., J. Phys.:Condens. Matter 21 395502 (2009);
          URL http://www.quantum-espresso.org", 
     in publications or presentations arising from this work. More details at
     http://www.quantum-espresso.org/quote

     Parallel version (MPI), running on    32 processors
     K-points division:     npool     =       2
     R & G space division:  proc/nbgrp/npool/nimage =      16
     Reading input from scf.in
Warning: card &IONS ignored
Warning: card / ignored

     Current dimensions of program PWSCF are:
     Max number of different atomic species (ntypx) = 10
     Max number of k-points (npk) =  40000
     Max angular momentum in pseudopotentials (lmaxx) =  3

     Subspace diagonalization in iterative solution of the eigenvalue problem:
     one sub-group per band group will be used
     scalapack distributed-memory algorithm (size of sub-group:  4*  4 procs)

 
     Parallelization info
     --------------------
     sticks:   dense  smooth     PW     G-vecs:    dense   smooth      PW
     Min         252     252     62                12125    12125    1510
     Max         254     254     63                12129    12129    1515
     Sum        4049    4049   1005               194039   194039   24207
 


     bravais-lattice index     =            1
     lattice parameter (alat)  =      13.4862  a.u.
     unit-cell volume          =    2452.8358 (a.u.)^3
     number of atoms/cell      =           63
     number of atomic types    =            2
     number of electrons       =       254.00
     number of Kohn-Sham states=          152
     kinetic-energy cutoff     =      70.0000  Ry
     charge density cutoff     =     280.0000  Ry
     convergence threshold     =      1.0E-06
     mixing beta               =       0.5000
     number of iterations used =            8  plain     mixing
     Exchange-correlation      = PBE ( 1  4  3  4 0 0)

     celldm(1)=  13.486197  celldm(2)=   0.000000  celldm(3)=   0.000000
     celldm(4)=   0.000000  celldm(5)=   0.000000  celldm(6)=   0.000000

     crystal axes: (cart. coord. in units of alat)
               a(1) = (   1.000000   0.000000   0.000000 )  
               a(2) = (   0.000000   1.000000   0.000000 )  
               a(3) = (   0.000000   0.000000   1.000000 )  

     reciprocal axes: (cart. coord. in units 2 pi/alat)
               b(1) = (  1.000000  0.000000  0.000000 )  
               b(2) = (  0.000000  1.000000  0.000000 )  
               b(3) = (  0.000000  0.000000  1.000000 )  


     PseudoPot. # 1 for C  read from file:
     /export/data/share/tjsmart/Pseudo/C_ONCV_PBE-1.0.upf
     MD5 check sum: 72b63e32b2fd29504de26a4901699f60
     Pseudo is Norm-conserving, Zval =  4.0
     Generated using ONCVPSP code by D. R. Hamann
     Using radial grid of 1248 points,  4 beta functions with: 
                l(1) =   0
                l(2) =   0
                l(3) =   1
                l(4) =   1

     PseudoPot. # 2 for N  read from file:
     /export/data/share/tjsmart/Pseudo/N_ONCV_PBE-1.0.upf
     MD5 check sum: 09890da6b2972017450f7114a6086fad
     Pseudo is Norm-conserving, Zval =  5.0
     Generated using ONCVPSP code by D. R. Hamann
     Using radial grid of 1058 points,  4 beta functions with: 
                l(1) =   0
                l(2) =   0
                l(3) =   1
                l(4) =   1

     atomic species   valence    mass     pseudopotential
        C              4.00    12.01110     C ( 1.00)
        N              5.00    14.00670     N ( 1.00)

     Starting magnetic structure 
     atomic species   magnetization
        C            0.500
        N            0.500

      6 Sym. Ops. (no inversion) found


                                    s                        frac. trans.

      isym =  1     identity                                     

 cryst.   s( 1) = (     1          0          0      )
                  (     0          1          0      )
                  (     0          0          1      )

 cart.    s( 1) = (  1.0000000  0.0000000  0.0000000 )
                  (  0.0000000  1.0000000  0.0000000 )
                  (  0.0000000  0.0000000  1.0000000 )


      isym =  2     120 deg rotation - cart. axis [-1,-1,-1]     

 cryst.   s( 2) = (     0          0          1      )
                  (     1          0          0      )
                  (     0          1          0      )

 cart.    s( 2) = (  0.0000000  1.0000000  0.0000000 )
                  (  0.0000000  0.0000000  1.0000000 )
                  (  1.0000000  0.0000000  0.0000000 )


      isym =  3     120 deg rotation - cart. axis [1,1,1]        

 cryst.   s( 3) = (     0          1          0      )
                  (     0          0          1      )
                  (     1          0          0      )

 cart.    s( 3) = (  0.0000000  0.0000000  1.0000000 )
                  (  1.0000000  0.0000000  0.0000000 )
                  (  0.0000000  1.0000000  0.0000000 )


      isym =  4     inv. 180 deg rotation - cart. axis [1,-1,0]  

 cryst.   s( 4) = (     0          1          0      )
                  (     1          0          0      )
                  (     0          0          1      )

 cart.    s( 4) = (  0.0000000  1.0000000  0.0000000 )
                  (  1.0000000  0.0000000  0.0000000 )
                  (  0.0000000  0.0000000  1.0000000 )


      isym =  5     inv. 180 deg rotation - cart. axis [-1,0,1]  

 cryst.   s( 5) = (     0          0          1      )
                  (     0          1          0      )
                  (     1          0          0      )

 cart.    s( 5) = (  0.0000000  0.0000000  1.0000000 )
                  (  0.0000000  1.0000000  0.0000000 )
                  (  1.0000000  0.0000000  0.0000000 )


      isym =  6     inv. 180 deg rotation - cart. axis [0,1,-1]  

 cryst.   s( 6) = (     1          0          0      )
                  (     0          0          1      )
                  (     0          1          0      )

 cart.    s( 6) = (  1.0000000  0.0000000  0.0000000 )
                  (  0.0000000  0.0000000  1.0000000 )
                  (  0.0000000  1.0000000  0.0000000 )


     point group C_3v (3m)  
     there are  3 classes
     the character table:

       E     2C3   3s_v 
A_1    1.00  1.00  1.00
A_2    1.00  1.00 -1.00
E      2.00 -1.00  0.00

     the symmetry operations in each class and the name of the first element:

     E        1
          identity                                               
     2C3      2    3
          120 deg rotation - cart. axis [-1,-1,-1]               
     3s_v     4    5    6
          inv. 180 deg rotation - cart. axis [1,-1,0]            

   Cartesian axes

     site n.     atom                  positions (alat units)
         1           C   tau(   1) = (   0.3757402   0.3757402   0.8736803  )
         2           C   tau(   2) = (   0.5000706   0.0002101   0.0002101  )
         3           C   tau(   3) = (   0.5000485  -0.0001014   0.5000485  )
         4           C   tau(   4) = (   0.0002101   0.5000706   0.0002101  )
         5           C   tau(   5) = (  -0.0001014   0.5000485   0.5000485  )
         6           C   tau(   6) = (  -0.0001125  -0.0001125  -0.0001125  )
         7           C   tau(   7) = (   0.0002101   0.0002101   0.5000706  )
         8           C   tau(   8) = (   0.2502416   0.2502416  -0.0012010  )
         9           C   tau(   9) = (   0.2506951   0.2506951   0.4948995  )
        10           C   tau(  10) = (   0.2503856   0.7490365   0.0009894  )
        11           C   tau(  11) = (   0.2525049   0.7478357   0.5016752  )
        12           C   tau(  12) = (   0.7490365   0.2503856   0.0009894  )
        13           C   tau(  13) = (   0.7478357   0.2525049   0.5016752  )
        14           C   tau(  14) = (   0.7496389   0.7496389  -0.0002616  )
        15           C   tau(  15) = (   0.5000485   0.5000485  -0.0001014  )
        16           C   tau(  16) = (   0.7490868   0.7490868   0.4987417  )
        17           C   tau(  17) = (   0.5016752   0.2525049   0.7478357  )
        18           C   tau(  18) = (   0.5016752   0.7478357   0.2525049  )
        19           C   tau(  19) = (   0.4987417   0.7490868   0.7490868  )
        20           C   tau(  20) = (  -0.0012010   0.2502416   0.2502416  )
        21           C   tau(  21) = (   0.0009894   0.2503856   0.7490365  )
        22           C   tau(  22) = (   0.0009894   0.7490365   0.2503856  )
        23           C   tau(  23) = (  -0.0002616   0.7496389   0.7496389  )
        24           C   tau(  24) = (   0.2506951   0.4948995   0.2506951  )
        25           C   tau(  25) = (   0.2525049   0.5016752   0.7478357  )
        26           C   tau(  26) = (   0.2502416  -0.0012010   0.2502416  )
        27           C   tau(  27) = (   0.2503856   0.0009894   0.7490365  )
        28           C   tau(  28) = (   0.7478357   0.5016752   0.2525049  )
        29           C   tau(  29) = (   0.7490868   0.4987417   0.7490868  )
        30           C   tau(  30) = (   0.4948995   0.2506951   0.2506951  )
        31           C   tau(  31) = (   0.7490365   0.0009894   0.2503856  )
        32           C   tau(  32) = (   0.6246399   0.8743770   0.6246399  )
        33           C   tau(  33) = (   0.6348385   0.3670190   0.6348385  )
        34           C   tau(  34) = (   0.3758777   0.8762036   0.8762036  )
        35           C   tau(  35) = (   0.3757402   0.8736803   0.3757402  )
        36           C   tau(  36) = (   0.8762036   0.3758777   0.8762036  )
        37           C   tau(  37) = (   0.8736803   0.3757402   0.3757402  )
        38           C   tau(  38) = (   0.8746919   0.8746919   0.8746919  )
        39           C   tau(  39) = (   0.8762036   0.8762036   0.3758777  )
        40           C   tau(  40) = (   0.1253825   0.1253825   0.8742599  )
        41           C   tau(  41) = (   0.1239082   0.1239082   0.3748667  )
        42           C   tau(  42) = (   0.1243035   0.6245338   0.8758697  )
        43           C   tau(  43) = (   0.1270560   0.6229702   0.3763156  )
        44           C   tau(  44) = (   0.6245338   0.1243035   0.8758697  )
        45           C   tau(  45) = (   0.6229702   0.1270560   0.3763156  )
        46           C   tau(  46) = (   0.6245338   0.8758697   0.1243035  )
        47           C   tau(  47) = (   0.6246399   0.6246399   0.8743770  )
        48           C   tau(  48) = (   0.3748667   0.1239082   0.1239082  )
        49           C   tau(  49) = (   0.3763156   0.1270560   0.6229702  )
        50           C   tau(  50) = (   0.3763156   0.6229702   0.1270560  )
        51           C   tau(  51) = (   0.3670190   0.6348385   0.6348385  )
        52           C   tau(  52) = (   0.8742599   0.1253825   0.1253825  )
        53           C   tau(  53) = (   0.8758697   0.1243035   0.6245338  )
        54           C   tau(  54) = (   0.8758697   0.6245338   0.1243035  )
        55           C   tau(  55) = (   0.8743770   0.6246399   0.6246399  )
        56           C   tau(  56) = (   0.1239082   0.3748667   0.1239082  )
        57           C   tau(  57) = (   0.1270560   0.3763156   0.6229702  )
        58           C   tau(  58) = (   0.1253825   0.8742599   0.1253825  )
        59           C   tau(  59) = (   0.1243035   0.8758697   0.6245338  )
        60           C   tau(  60) = (   0.6229702   0.3763156   0.1270560  )
        61           C   tau(  61) = (   0.6348385   0.6348385   0.3670190  )
        62           C   tau(  62) = (   0.7496389  -0.0002616   0.7496389  )
        63           N   tau(  63) = (   0.3649724   0.3649724   0.3649724  )

   Crystallographic axes

     site n.     atom                  positions (cryst. coord.)
         1           C   tau(   1) = (  0.3757402  0.3757402  0.8736803  )
         2           C   tau(   2) = (  0.5000706  0.0002101  0.0002101  )
         3           C   tau(   3) = (  0.5000485 -0.0001014  0.5000485  )
         4           C   tau(   4) = (  0.0002101  0.5000706  0.0002101  )
         5           C   tau(   5) = ( -0.0001014  0.5000485  0.5000485  )
         6           C   tau(   6) = ( -0.0001125 -0.0001125 -0.0001125  )
         7           C   tau(   7) = (  0.0002101  0.0002101  0.5000706  )
         8           C   tau(   8) = (  0.2502416  0.2502416 -0.0012010  )
         9           C   tau(   9) = (  0.2506951  0.2506951  0.4948995  )
        10           C   tau(  10) = (  0.2503856  0.7490365  0.0009894  )
        11           C   tau(  11) = (  0.2525049  0.7478357  0.5016752  )
        12           C   tau(  12) = (  0.7490365  0.2503856  0.0009894  )
        13           C   tau(  13) = (  0.7478357  0.2525049  0.5016752  )
        14           C   tau(  14) = (  0.7496389  0.7496389 -0.0002616  )
        15           C   tau(  15) = (  0.5000485  0.5000485 -0.0001014  )
        16           C   tau(  16) = (  0.7490868  0.7490868  0.4987417  )
        17           C   tau(  17) = (  0.5016752  0.2525049  0.7478357  )
        18           C   tau(  18) = (  0.5016752  0.7478357  0.2525049  )
        19           C   tau(  19) = (  0.4987417  0.7490868  0.7490868  )
        20           C   tau(  20) = ( -0.0012010  0.2502416  0.2502416  )
        21           C   tau(  21) = (  0.0009894  0.2503856  0.7490365  )
        22           C   tau(  22) = (  0.0009894  0.7490365  0.2503856  )
        23           C   tau(  23) = ( -0.0002616  0.7496389  0.7496389  )
        24           C   tau(  24) = (  0.2506951  0.4948995  0.2506951  )
        25           C   tau(  25) = (  0.2525049  0.5016752  0.7478357  )
        26           C   tau(  26) = (  0.2502416 -0.0012010  0.2502416  )
        27           C   tau(  27) = (  0.2503856  0.0009894  0.7490365  )
        28           C   tau(  28) = (  0.7478357  0.5016752  0.2525049  )
        29           C   tau(  29) = (  0.7490868  0.4987417  0.7490868  )
        30           C   tau(  30) = (  0.4948995  0.2506951  0.2506951  )
        31           C   tau(  31) = (  0.7490365  0.0009894  0.2503856  )
        32           C   tau(  32) = (  0.6246399  0.8743770  0.6246399  )
        33           C   tau(  33) = (  0.6348385  0.3670190  0.6348385  )
        34           C   tau(  34) = (  0.3758777  0.8762036  0.8762036  )
        35           C   tau(  35) = (  0.3757402  0.8736803  0.3757402  )
        36           C   tau(  36) = (  0.8762036  0.3758777  0.8762036  )
        37           C   tau(  37) = (  0.8736803  0.3757402  0.3757402  )
        38           C   tau(  38) = (  0.8746919  0.8746919  0.8746919  )
        39           C   tau(  39) = (  0.8762036  0.8762036  0.3758777  )
        40           C   tau(  40) = (  0.1253825  0.1253825  0.8742599  )
        41           C   tau(  41) = (  0.1239082  0.1239082  0.3748667  )
        42           C   tau(  42) = (  0.1243035  0.6245338  0.8758697  )
        43           C   tau(  43) = (  0.1270560  0.6229702  0.3763156  )
        44           C   tau(  44) = (  0.6245338  0.1243035  0.8758697  )
        45           C   tau(  45) = (  0.6229702  0.1270560  0.3763156  )
        46           C   tau(  46) = (  0.6245338  0.8758697  0.1243035  )
        47           C   tau(  47) = (  0.6246399  0.6246399  0.8743770  )
        48           C   tau(  48) = (  0.3748667  0.1239082  0.1239082  )
        49           C   tau(  49) = (  0.3763156  0.1270560  0.6229702  )
        50           C   tau(  50) = (  0.3763156  0.6229702  0.1270560  )
        51           C   tau(  51) = (  0.3670190  0.6348385  0.6348385  )
        52           C   tau(  52) = (  0.8742599  0.1253825  0.1253825  )
        53           C   tau(  53) = (  0.8758697  0.1243035  0.6245338  )
        54           C   tau(  54) = (  0.8758697  0.6245338  0.1243035  )
        55           C   tau(  55) = (  0.8743770  0.6246399  0.6246399  )
        56           C   tau(  56) = (  0.1239082  0.3748667  0.1239082  )
        57           C   tau(  57) = (  0.1270560  0.3763156  0.6229702  )
        58           C   tau(  58) = (  0.1253825  0.8742599  0.1253825  )
        59           C   tau(  59) = (  0.1243035  0.8758697  0.6245338  )
        60           C   tau(  60) = (  0.6229702  0.3763156  0.1270560  )
        61           C   tau(  61) = (  0.6348385  0.6348385  0.3670190  )
        62           C   tau(  62) = (  0.7496389 -0.0002616  0.7496389  )
        63           N   tau(  63) = (  0.3649724  0.3649724  0.3649724  )

     number of k points=     1
                       cart. coord. in units 2pi/alat
        k(    1) = (   0.0000000   0.0000000   0.0000000), wk =   1.0000000

                       cryst. coord.
        k(    1) = (   0.0000000   0.0000000   0.0000000), wk =   1.0000000

     Dense  grid:   194039 G-vectors     FFT dimensions: (  72,  72,  72)

     Occupations read from input 

      Spin-up

        1.0000   1.0000   1.0000   1.0000   1.0000   1.0000   1.0000   1.0000
        1.0000   1.0000   1.0000   1.0000   1.0000   1.0000   1.0000   1.0000
        1.0000   1.0000   1.0000   1.0000   1.0000   1.0000   1.0000   1.0000
        1.0000   1.0000   1.0000   1.0000   1.0000   1.0000   1.0000   1.0000
        1.0000   1.0000   1.0000   1.0000   1.0000   1.0000   1.0000   1.0000
        1.0000   1.0000   1.0000   1.0000   1.0000   1.0000   1.0000   1.0000
        1.0000   1.0000   1.0000   1.0000   1.0000   1.0000   1.0000   1.0000
        1.0000   1.0000   1.0000   1.0000   1.0000   1.0000   1.0000   1.0000
        1.0000   1.0000   1.0000   1.0000   1.0000   1.0000   1.0000   1.0000
        1.0000   1.0000   1.0000   1.0000   1.0000   1.0000   1.0000   1.0000
        1.0000   1.0000   1.0000   1.0000   1.0000   1.0000   1.0000   1.0000
        1.0000   1.0000   1.0000   1.0000   1.0000   1.0000   1.0000   1.0000
        1.0000   1.0000   1.0000   1.0000   1.0000   1.0000   1.0000   1.0000
        1.0000   1.0000   1.0000   1.0000   1.0000   1.0000   1.0000   1.0000
        1.0000   1.0000   1.0000   1.0000   1.0000   1.0000   1.0000   1.0000
        1.0000   1.0000   1.0000   1.0000   1.0000   1.0000   1.0000   1.0000
        0.0000   0.0000   0.0000   0.0000   0.0000   0.0000   0.0000   0.0000
        0.0000   0.0000   0.0000   0.0000   0.0000   0.0000   0.0000   0.0000
        0.0000   0.0000   0.0000   0.0000   0.0000   0.0000   0.0000   0.0000

      Spin-down

        1.0000   1.0000   1.0000   1.0000   1.0000   1.0000   1.0000   1.0000
        1.0000   1.0000   1.0000   1.0000   1.0000   1.0000   1.0000   1.0000
        1.0000   1.0000   1.0000   1.0000   1.0000   1.0000   1.0000   1.0000
        1.0000   1.0000   1.0000   1.0000   1.0000   1.0000   1.0000   1.0000
        1.0000   1.0000   1.0000   1.0000   1.0000   1.0000   1.0000   1.0000
        1.0000   1.0000   1.0000   1.0000   1.0000   1.0000   1.0000   1.0000
        1.0000   1.0000   1.0000   1.0000   1.0000   1.0000   1.0000   1.0000
        1.0000   1.0000   1.0000   1.0000   1.0000   1.0000   1.0000   1.0000
        1.0000   1.0000   1.0000   1.0000   1.0000   1.0000   1.0000   1.0000
        1.0000   1.0000   1.0000   1.0000   1.0000   1.0000   1.0000   1.0000
        1.0000   1.0000   1.0000   1.0000   1.0000   1.0000   1.0000   1.0000
        1.0000   1.0000   1.0000   1.0000   1.0000   1.0000   1.0000   1.0000
        1.0000   1.0000   1.0000   1.0000   1.0000   1.0000   1.0000   1.0000
        1.0000   1.0000   1.0000   1.0000   1.0000   1.0000   1.0000   1.0000
        1.0000   1.0000   1.0000   1.0000   1.0000   1.0000   1.0000   1.0000
        1.0000   1.0000   1.0000   1.0000   1.0000   0.0000   1.0000   0.0000
        0.0000   0.0000   0.0000   0.0000   0.0000   0.0000   0.0000   0.0000
        0.0000   0.0000   0.0000   0.0000   0.0000   0.0000   0.0000   0.0000
        0.0000   0.0000   0.0000   0.0000   0.0000   0.0000   0.0000   0.0000

     Estimated max dynamical RAM per process >      42.63MB

     Estimated total allocated dynamical RAM >    1364.05MB
     Generating pointlists ...
     new r_m :   0.0855 (alat units)  1.1536 (a.u.) for type    1
     new r_m :   0.0855 (alat units)  1.1536 (a.u.) for type    2

     Initial potential from superposition of free atoms

     starting charge  252.99722, renormalised to  254.00000
     Starting wfc are  252 randomized atomic wfcs

     total cpu time spent up to now is        2.6 secs

     per-process dynamical memory:    49.0 Mb

     Self-consistent Calculation

     iteration #  1     ecut=    70.00 Ry     beta=0.50
     Davidson diagonalization with overlap
     ethr =  1.00E-02,  avg # of iterations =  3.0

     total cpu time spent up to now is        3.7 secs

     total energy              =    -722.06791456 Ry
     Harris-Foulkes estimate   =    -717.25831737 Ry
     estimated scf accuracy    <       6.83679864 Ry

     total magnetization       =     2.00 Bohr mag/cell
     absolute magnetization    =     3.62 Bohr mag/cell

     iteration #  2     ecut=    70.00 Ry     beta=0.50
     Davidson diagonalization with overlap
     ethr =  2.69E-03,  avg # of iterations =  2.0

     total cpu time spent up to now is        4.4 secs

     total energy              =    -723.75902438 Ry
     Harris-Foulkes estimate   =    -722.47850701 Ry
     estimated scf accuracy    <       1.60316362 Ry

     total magnetization       =     2.00 Bohr mag/cell
     absolute magnetization    =     2.45 Bohr mag/cell

     iteration #  3     ecut=    70.00 Ry     beta=0.50
     Davidson diagonalization with overlap
     ethr =  6.31E-04,  avg # of iterations =  3.5

     total cpu time spent up to now is        5.3 secs

     total energy              =    -724.12729047 Ry
     Harris-Foulkes estimate   =    -724.20086308 Ry
     estimated scf accuracy    <       0.96929809 Ry

     total magnetization       =     2.00 Bohr mag/cell
     absolute magnetization    =     2.11 Bohr mag/cell

     iteration #  4     ecut=    70.00 Ry     beta=0.50
     Davidson diagonalization with overlap
     ethr =  3.82E-04,  avg # of iterations =  5.0

     total cpu time spent up to now is        6.3 secs

     total energy              =    -724.29578026 Ry
     Harris-Foulkes estimate   =    -724.28240544 Ry
     estimated scf accuracy    <       0.02271645 Ry

     total magnetization       =     2.00 Bohr mag/cell
     absolute magnetization    =     2.14 Bohr mag/cell

     iteration #  5     ecut=    70.00 Ry     beta=0.50
     Davidson diagonalization with overlap
     c_bands:  1 eigenvalues not converged
     ethr =  8.94E-06,  avg # of iterations = 20.0

     total cpu time spent up to now is        9.4 secs

     total energy              =    -724.30623635 Ry
     Harris-Foulkes estimate   =    -724.30459561 Ry
     estimated scf accuracy    <       0.00761702 Ry

     total magnetization       =     2.00 Bohr mag/cell
     absolute magnetization    =     2.16 Bohr mag/cell

     iteration #  6     ecut=    70.00 Ry     beta=0.50
     Davidson diagonalization with overlap
     ethr =  3.00E-06,  avg # of iterations = 17.0

     total cpu time spent up to now is       11.5 secs

     total energy              =    -724.30754168 Ry
     Harris-Foulkes estimate   =    -724.30790476 Ry
     estimated scf accuracy    <       0.00144274 Ry

     total magnetization       =     2.00 Bohr mag/cell
     absolute magnetization    =     2.18 Bohr mag/cell

     iteration #  7     ecut=    70.00 Ry     beta=0.50
     Davidson diagonalization with overlap
     ethr =  5.68E-07,  avg # of iterations =  3.5

     total cpu time spent up to now is       12.5 secs

     total energy              =    -724.30788342 Ry
     Harris-Foulkes estimate   =    -724.30782325 Ry
     estimated scf accuracy    <       0.00009060 Ry

     total magnetization       =     2.00 Bohr mag/cell
     absolute magnetization    =     2.19 Bohr mag/cell

     iteration #  8     ecut=    70.00 Ry     beta=0.50
     Davidson diagonalization with overlap
     ethr =  3.57E-08,  avg # of iterations =  3.5

     total cpu time spent up to now is       13.5 secs

     total energy              =    -724.30793380 Ry
     Harris-Foulkes estimate   =    -724.30791024 Ry
     estimated scf accuracy    <       0.00001435 Ry

     total magnetization       =     2.00 Bohr mag/cell
     absolute magnetization    =     2.20 Bohr mag/cell

     iteration #  9     ecut=    70.00 Ry     beta=0.50
     Davidson diagonalization with overlap
     ethr =  5.65E-09,  avg # of iterations =  4.0

     total cpu time spent up to now is       14.6 secs

     total energy              =    -724.30794925 Ry
     Harris-Foulkes estimate   =    -724.30793837 Ry
     estimated scf accuracy    <       0.00000502 Ry

     total magnetization       =     2.00 Bohr mag/cell
     absolute magnetization    =     2.20 Bohr mag/cell

     iteration # 10     ecut=    70.00 Ry     beta=0.50
     Davidson diagonalization with overlap
     ethr =  1.98E-09,  avg # of iterations =  4.5
 
     Magnetic moment per site:
     atom:    1    charge:    1.8342    magn:    0.0052    constr:    0.0000
     atom:    2    charge:    1.8502    magn:    0.0092    constr:    0.0000
     atom:    3    charge:    1.8394    magn:   -0.0015    constr:    0.0000
     atom:    4    charge:    1.8502    magn:    0.0092    constr:    0.0000
     atom:    5    charge:    1.8394    magn:   -0.0015    constr:    0.0000
     atom:    6    charge:    1.8294    magn:    0.0017    constr:    0.0000
     atom:    7    charge:    1.8502    magn:    0.0092    constr:    0.0000
     atom:    8    charge:    1.8326    magn:    0.0006    constr:    0.0000
     atom:    9    charge:    1.8109    magn:    0.0019    constr:    0.0000
     atom:   10    charge:    1.8264    magn:   -0.0007    constr:    0.0000
     atom:   11    charge:    1.8372    magn:   -0.0031    constr:    0.0000
     atom:   12    charge:    1.8264    magn:   -0.0007    constr:    0.0000
     atom:   13    charge:    1.8372    magn:   -0.0031    constr:    0.0000
     atom:   14    charge:    1.8325    magn:   -0.0002    constr:    0.0000
     atom:   15    charge:    1.8394    magn:   -0.0015    constr:    0.0000
     atom:   16    charge:    1.8373    magn:    0.0029    constr:    0.0000
     atom:   17    charge:    1.8372    magn:   -0.0031    constr:    0.0000
     atom:   18    charge:    1.8372    magn:   -0.0031    constr:    0.0000
     atom:   19    charge:    1.8373    magn:    0.0029    constr:    0.0000
     atom:   20    charge:    1.8326    magn:    0.0006    constr:    0.0000
     atom:   21    charge:    1.8264    magn:   -0.0007    constr:    0.0000
     atom:   22    charge:    1.8264    magn:   -0.0007    constr:    0.0000
     atom:   23    charge:    1.8325    magn:   -0.0002    constr:    0.0000
     atom:   24    charge:    1.8109    magn:    0.0019    constr:    0.0000
     atom:   25    charge:    1.8372    magn:   -0.0031    constr:    0.0000
     atom:   26    charge:    1.8326    magn:    0.0006    constr:    0.0000
     atom:   27    charge:    1.8264    magn:   -0.0007    constr:    0.0000
     atom:   28    charge:    1.8372    magn:   -0.0031    constr:    0.0000
     atom:   29    charge:    1.8373    magn:    0.0029    constr:    0.0000
     atom:   30    charge:    1.8109    magn:    0.0019    constr:    0.0000
     atom:   31    charge:    1.8264    magn:   -0.0007    constr:    0.0000
     atom:   32    charge:    1.8326    magn:    0.0073    constr:    0.0000
     atom:   33    charge:    1.8596    magn:    0.1904    constr:    0.0000
     atom:   34    charge:    1.8302    magn:    0.0196    constr:    0.0000
     atom:   35    charge:    1.8342    magn:    0.0052    constr:    0.0000
     atom:   36    charge:    1.8302    magn:    0.0196    constr:    0.0000
     atom:   37    charge:    1.8342    magn:    0.0052    constr:    0.0000
     atom:   38    charge:    1.8345    magn:    0.0054    constr:    0.0000
     atom:   39    charge:    1.8302    magn:    0.0196    constr:    0.0000
     atom:   40    charge:    1.8356    magn:    0.0035    constr:    0.0000
     atom:   41    charge:    1.8405    magn:    0.0122    constr:    0.0000
     atom:   42    charge:    1.8325    magn:    0.0186    constr:    0.0000
     atom:   43    charge:    1.8287    magn:    0.0065    constr:    0.0000
     atom:   44    charge:    1.8325    magn:    0.0186    constr:    0.0000
     atom:   45    charge:    1.8287    magn:    0.0065    constr:    0.0000
     atom:   46    charge:    1.8325    magn:    0.0186    constr:    0.0000
     atom:   47    charge:    1.8326    magn:    0.0073    constr:    0.0000
     atom:   48    charge:    1.8405    magn:    0.0122    constr:    0.0000
     atom:   49    charge:    1.8287    magn:    0.0065    constr:    0.0000
     atom:   50    charge:    1.8287    magn:    0.0065    constr:    0.0000
     atom:   51    charge:    1.8596    magn:    0.1904    constr:    0.0000
     atom:   52    charge:    1.8356    magn:    0.0035    constr:    0.0000
     atom:   53    charge:    1.8325    magn:    0.0186    constr:    0.0000
     atom:   54    charge:    1.8325    magn:    0.0186    constr:    0.0000
     atom:   55    charge:    1.8326    magn:    0.0073    constr:    0.0000
     atom:   56    charge:    1.8405    magn:    0.0122    constr:    0.0000
     atom:   57    charge:    1.8287    magn:    0.0065    constr:    0.0000
     atom:   58    charge:    1.8356    magn:    0.0035    constr:    0.0000
     atom:   59    charge:    1.8325    magn:    0.0186    constr:    0.0000
     atom:   60    charge:    1.8287    magn:    0.0065    constr:    0.0000
     atom:   61    charge:    1.8596    magn:    0.1904    constr:    0.0000
     atom:   62    charge:    1.8325    magn:   -0.0002    constr:    0.0000
     atom:   63    charge:    2.8976    magn:    0.1545    constr:    0.0000

     total cpu time spent up to now is       15.7 secs

     End of self-consistent calculation

 ------ SPIN UP ------------


          k = 0.0000 0.0000 0.0000 ( 24207 PWs)   bands (ev):

    -8.6558  -7.2758  -6.2732  -6.2732  -6.1270  -6.1270  -5.8862  -5.0377
    -4.1518  -4.1518  -4.1145  -4.1145  -3.9900  -3.9900  -3.9539  -3.9465
    -3.8260  -3.8260  -3.3639  -2.9731  -2.6466  -2.6466  -2.0561  -0.4083
    -0.4083  -0.3409  -0.3229  -0.1379   0.1610   0.1610   0.2687   0.2687
     0.3547   0.5852   0.7898   0.7898   1.0061   1.0061   1.0158   1.0375
     1.0375   1.1111   1.3837   1.3837   3.0244   3.7416   3.7416   3.9875
     4.2141   4.2270   4.2270   4.2362   4.2799   4.2799   4.4281   4.4281
     4.4649   4.4649   4.6090   4.6369   4.6369   4.6494   4.6774   4.7473
     4.7473   4.8670   4.9329   4.9329   5.0265   5.2092   5.2092   5.2515
     5.3379   5.3379   5.3889   5.4495   5.4495   6.0067   6.0067   6.0349
     6.5949   6.5949   6.7315   6.9035   7.0242   7.0242   7.4880   8.2460
     8.2460   8.3802   8.4637   8.4637   8.6195   8.6195   8.7850   8.7961
     8.7961   8.8049   8.8887   8.8887   8.9182   9.2635   9.2659   9.2659
     9.6652   9.6652   9.8754   9.8754   9.8781   9.9148   9.9472   9.9472
     9.9583   9.9738   9.9751   9.9751  10.1312  10.1312  10.3040  10.3040
    10.3572  10.5037  12.1809  12.4450  12.4450  13.5165  15.1046  15.1046
    17.2248  17.3244  17.3244  17.4837  17.5189  17.5189  17.8276  17.8883
    17.8883  17.9844  17.9844  18.3316  18.8848  18.8848  18.9491  20.5347
    20.7524  20.7524  20.8178  20.8729  20.8729  20.9660  20.9661  20.9860

     occupation numbers 
     1.0000   1.0000   1.0000   1.0000   1.0000   1.0000   1.0000   1.0000
     1.0000   1.0000   1.0000   1.0000   1.0000   1.0000   1.0000   1.0000
     1.0000   1.0000   1.0000   1.0000   1.0000   1.0000   1.0000   1.0000
     1.0000   1.0000   1.0000   1.0000   1.0000   1.0000   1.0000   1.0000
     1.0000   1.0000   1.0000   1.0000   1.0000   1.0000   1.0000   1.0000
     1.0000   1.0000   1.0000   1.0000   1.0000   1.0000   1.0000   1.0000
     1.0000   1.0000   1.0000   1.0000   1.0000   1.0000   1.0000   1.0000
     1.0000   1.0000   1.0000   1.0000   1.0000   1.0000   1.0000   1.0000
     1.0000   1.0000   1.0000   1.0000   1.0000   1.0000   1.0000   1.0000
     1.0000   1.0000   1.0000   1.0000   1.0000   1.0000   1.0000   1.0000
     1.0000   1.0000   1.0000   1.0000   1.0000   1.0000   1.0000   1.0000
     1.0000   1.0000   1.0000   1.0000   1.0000   1.0000   1.0000   1.0000
     1.0000   1.0000   1.0000   1.0000   1.0000   1.0000   1.0000   1.0000
     1.0000   1.0000   1.0000   1.0000   1.0000   1.0000   1.0000   1.0000
     1.0000   1.0000   1.0000   1.0000   1.0000   1.0000   1.0000   1.0000
     1.0000   1.0000   1.0000   1.0000   1.0000   1.0000   1.0000   1.0000
     0.0000   0.0000   0.0000   0.0000   0.0000   0.0000   0.0000   0.0000
     0.0000   0.0000   0.0000   0.0000   0.0000   0.0000   0.0000   0.0000
     0.0000   0.0000   0.0000   0.0000   0.0000   0.0000   0.0000   0.0000

 ------ SPIN DOWN ----------


          k = 0.0000 0.0000 0.0000 ( 24207 PWs)   bands (ev):

    -8.6076  -7.1810  -6.2530  -6.2530  -6.0947  -6.0947  -5.8499  -4.9863
    -4.1293  -4.1293  -4.0967  -4.0967  -3.9472  -3.9472  -3.9328  -3.9285
    -3.7841  -3.7841  -3.3206  -2.9391  -2.5972  -2.5972  -1.9434  -0.3893
    -0.3893  -0.3213  -0.2784  -0.0665   0.1812   0.1812   0.3014   0.3014
     0.3787   0.6263   0.8083   0.8083   1.0339   1.0339   1.0427   1.0569
     1.0569   1.1296   1.5176   1.5176   3.1344   3.7825   3.7825   4.0269
     4.2530   4.2553   4.2553   4.2602   4.3049   4.3049   4.4520   4.4520
     4.5081   4.5081   4.6252   4.6591   4.6591   4.6786   4.6957   4.7821
     4.7821   4.8942   4.9608   4.9608   5.1108   5.2445   5.2445   5.2896
     5.3509   5.3509   5.4003   5.4961   5.4961   6.0577   6.0577   6.0970
     6.6261   6.6261   6.7570   6.9918   7.1021   7.1021   7.6465   8.2854
     8.2854   8.4238   8.4950   8.4950   8.6600   8.6600   8.8185   8.8185
     8.8237   8.8669   8.9314   8.9314   8.9324   9.2942   9.2942   9.3060
     9.6959   9.6959   9.8930   9.8988   9.8988   9.9278   9.9745   9.9745
     9.9897  10.0054  10.0076  10.0076  10.1657  10.1657  10.3622  10.3622
    10.4010  11.0313  12.4962  12.5446  12.5446  14.1930  16.0875  16.0875
    17.2755  17.3440  17.3440  17.5086  17.5612  17.5612  17.8685  17.9093
    17.9093  18.0173  18.0173  18.4296  18.9590  18.9590  18.9991  20.6092
    20.7680  20.7680  20.8277  20.8966  20.8967  20.9873  20.9873  21.0103

     occupation numbers 
     1.0000   1.0000   1.0000   1.0000   1.0000   1.0000   1.0000   1.0000
     1.0000   1.0000   1.0000   1.0000   1.0000   1.0000   1.0000   1.0000
     1.0000   1.0000   1.0000   1.0000   1.0000   1.0000   1.0000   1.0000
     1.0000   1.0000   1.0000   1.0000   1.0000   1.0000   1.0000   1.0000
     1.0000   1.0000   1.0000   1.0000   1.0000   1.0000   1.0000   1.0000
     1.0000   1.0000   1.0000   1.0000   1.0000   1.0000   1.0000   1.0000
     1.0000   1.0000   1.0000   1.0000   1.0000   1.0000   1.0000   1.0000
     1.0000   1.0000   1.0000   1.0000   1.0000   1.0000   1.0000   1.0000
     1.0000   1.0000   1.0000   1.0000   1.0000   1.0000   1.0000   1.0000
     1.0000   1.0000   1.0000   1.0000   1.0000   1.0000   1.0000   1.0000
     1.0000   1.0000   1.0000   1.0000   1.0000   1.0000   1.0000   1.0000
     1.0000   1.0000   1.0000   1.0000   1.0000   1.0000   1.0000   1.0000
     1.0000   1.0000   1.0000   1.0000   1.0000   1.0000   1.0000   1.0000
     1.0000   1.0000   1.0000   1.0000   1.0000   1.0000   1.0000   1.0000
     1.0000   1.0000   1.0000   1.0000   1.0000   1.0000   1.0000   1.0000
     1.0000   1.0000   1.0000   1.0000   1.0000   0.0000   1.0000   0.0000
     0.0000   0.0000   0.0000   0.0000   0.0000   0.0000   0.0000   0.0000
     0.0000   0.0000   0.0000   0.0000   0.0000   0.0000   0.0000   0.0000
     0.0000   0.0000   0.0000   0.0000   0.0000   0.0000   0.0000   0.0000

     highest occupied, lowest unoccupied level (ev):    15.1046   14.1930

!    total energy              =    -724.30795400 Ry
     Harris-Foulkes estimate   =    -724.30795282 Ry
     estimated scf accuracy    <       0.00000097 Ry

     The total energy is the sum of the following terms:

     one-electron contribution =     233.00190612 Ry
     hartree contribution      =      69.71862591 Ry
     xc contribution           =    -226.61537484 Ry
     ewald contribution        =    -800.41311120 Ry

     total magnetization       =     2.00 Bohr mag/cell
     absolute magnetization    =     2.21 Bohr mag/cell

     convergence has been achieved in  10 iterations

     Writing output data file di.save
 
     init_run     :      0.89s CPU      1.17s WALL (       1 calls)
     electrons    :     12.82s CPU     13.23s WALL (       1 calls)

     Called by init_run:
     wfcinit      :      0.38s CPU      0.42s WALL (       1 calls)
     wfcinit:atom :      0.00s CPU      0.00s WALL (       1 calls)
     wfcinit:wfcr :      0.36s CPU      0.39s WALL (       1 calls)
     potinit      :      0.07s CPU      0.08s WALL (       1 calls)

     Called by electrons:
     c_bands      :     11.73s CPU     12.10s WALL (      10 calls)
     sum_band     :      0.58s CPU      0.59s WALL (      10 calls)
     v_of_rho     :      0.40s CPU      0.41s WALL (      11 calls)
     v_h          :      0.01s CPU      0.01s WALL (      11 calls)
     v_xc         :      0.39s CPU      0.40s WALL (      11 calls)
     mix_rho      :      0.07s CPU      0.08s WALL (      10 calls)

     Called by c_bands:
     init_us_2    :      0.09s CPU      0.09s WALL (      21 calls)
     cegterg      :     11.20s CPU     11.57s WALL (      10 calls)

     Called by sum_band:

     Called by *egterg:
     h_psi        :      4.66s CPU      4.74s WALL (      78 calls)
     g_psi        :      0.03s CPU      0.03s WALL (      67 calls)
     cdiaghg      :      4.34s CPU      4.52s WALL (      77 calls)
     cegterg:over :      0.95s CPU      0.95s WALL (      67 calls)
     cegterg:upda :      0.96s CPU      0.97s WALL (      67 calls)
     cegterg:last :      0.29s CPU      0.29s WALL (      10 calls)
     cdiaghg:chol :      0.35s CPU      0.39s WALL (      77 calls)
     cdiaghg:inve :      0.25s CPU      0.25s WALL (      77 calls)
     cdiaghg:para :      0.37s CPU      0.42s WALL (     154 calls)

     Called by h_psi:
     h_psi:pot    :      4.60s CPU      4.68s WALL (      78 calls)
     h_psi:calbec :      1.02s CPU      1.04s WALL (      78 calls)
     vloc_psi     :      2.54s CPU      2.58s WALL (      78 calls)
     add_vuspsi   :      1.03s CPU      1.06s WALL (      78 calls)

     General routines
     calbec       :      1.02s CPU      1.04s WALL (      78 calls)
     fft          :      0.13s CPU      0.31s WALL (     228 calls)
     fftw         :      2.75s CPU      2.69s WALL (   10288 calls)
 
     Parallel routines
     fft_scatter  :      0.80s CPU      0.82s WALL (   10516 calls)
 
     PWSCF        :    14.34s CPU        16.58s WALL

 
   This run was terminated on:  13:19:12   1Jun2021            

=------------------------------------------------------------------------------=
   JOB DONE.
=------------------------------------------------------------------------------=
