
     Program PWSCF v.6.1 (svn rev. 13369) starts on 28Apr2020 at 22:10:12 

     This program is part of the open-source Quantum ESPRESSO suite
     for quantum simulation of materials; please cite
         "P. Giannozzi et al., J. Phys.:Condens. Matter 21 395502 (2009);
          URL http://www.quantum-espresso.org", 
     in publications or presentations arising from this work. More details at
     http://www.quantum-espresso.org/quote

     Parallel version (MPI), running on    32 processors
     K-points division:     npool     =       2
     R & G space division:  proc/nbgrp/npool/nimage =      16
     Reading input from scf.in
Warning: card &IONS ignored
Warning: card / ignored

     Current dimensions of program PWSCF are:
     Max number of different atomic species (ntypx) = 10
     Max number of k-points (npk) =  40000
     Max angular momentum in pseudopotentials (lmaxx) =  3

     Subspace diagonalization in iterative solution of the eigenvalue problem:
     one sub-group per band group will be used
     scalapack distributed-memory algorithm (size of sub-group:  4*  4 procs)

 
     Parallelization info
     --------------------
     sticks:   dense  smooth     PW     G-vecs:    dense   smooth      PW
     Min         766     766    191                91100    91100   11396
     Max         767     767    193                91105    91105   11399
     Sum       12259   12259   3067              1457633  1457633  182351
 


     bravais-lattice index     =            0
     lattice parameter (alat)  =      28.4285  a.u.
     unit-cell volume          =   26452.5957 (a.u.)^3
     number of atoms/cell      =           71
     number of atomic types    =            2
     number of electrons       =       285.00
     number of Kohn-Sham states=          151
     kinetic-energy cutoff     =      55.0000  Ry
     charge density cutoff     =     220.0000  Ry
     convergence threshold     =      1.0E-06
     mixing beta               =       0.7000
     number of iterations used =            8  plain     mixing
     Exchange-correlation      = PBE ( 1  4  3  4 0 0)

     celldm(1)=  28.428530  celldm(2)=   0.000000  celldm(3)=   0.000000
     celldm(4)=   0.000000  celldm(5)=   0.000000  celldm(6)=   0.000000

     crystal axes: (cart. coord. in units of alat)
               a(1) = (   1.000000   0.000000   0.000000 )  
               a(2) = (  -0.500000   0.866025   0.000000 )  
               a(3) = (   0.000000   0.000000   1.329458 )  

     reciprocal axes: (cart. coord. in units 2 pi/alat)
               b(1) = (  1.000000  0.577350  0.000000 )  
               b(2) = (  0.000000  1.154701  0.000000 )  
               b(3) = (  0.000000  0.000000  0.752187 )  


     PseudoPot. # 1 for B  read from file:
     /home/tjsmart/Pseudo/B_ONCV_PBE-1.0.upf
     MD5 check sum: a9fd2462c33df863cd3ce8a66ea40380
     Pseudo is Norm-conserving, Zval =  3.0
     Generated using ONCVPSP code by D. R. Hamann
     Using radial grid of 1534 points,  4 beta functions with: 
                l(1) =   0
                l(2) =   0
                l(3) =   1
                l(4) =   1

     PseudoPot. # 2 for N  read from file:
     /home/tjsmart/Pseudo/N_ONCV_PBE-1.0.upf
     MD5 check sum: 09890da6b2972017450f7114a6086fad
     Pseudo is Norm-conserving, Zval =  5.0
     Generated using ONCVPSP code by D. R. Hamann
     Using radial grid of 1058 points,  4 beta functions with: 
                l(1) =   0
                l(2) =   0
                l(3) =   1
                l(4) =   1

     atomic species   valence    mass     pseudopotential
        B              3.00    10.81100     B ( 1.00)
        N              5.00    14.00670     N ( 1.00)

     Starting magnetic structure 
     atomic species   magnetization
        B            0.500
        N            0.500

      2 Sym. Ops. (no inversion) found



   Cartesian axes

     site n.     atom                  positions (alat units)
         1           B   tau(   1) = (   0.0847135   0.0483405   0.0000000  )
         2           B   tau(   2) = (   0.0022772   0.1917730   0.0000000  )
         3           B   tau(   3) = (  -0.0836525   0.3355630   0.0000000  )
         4           B   tau(   4) = (  -0.1699387   0.4798903   0.0000000  )
         5           B   tau(   5) = (  -0.2534881   0.6241645   0.0000000  )
         6           B   tau(   6) = (  -0.3350520   0.7685676   0.0000000  )
         7           B   tau(   7) = (   0.2501429   0.0504038   0.0000000  )
         8           B   tau(   8) = (   0.1710871   0.1988307   0.0000000  )
         9           B   tau(   9) = (   0.0822557   0.3382588   0.0000000  )
        10           B   tau(  10) = (  -0.0047088   0.4812594   0.0000000  )
        11           B   tau(  11) = (  -0.0872084   0.6254892   0.0000000  )
        12           B   tau(  12) = (  -0.1691818   0.7701296   0.0000000  )
        13           B   tau(  13) = (   0.4158447   0.0489917   0.0000000  )
        14           B   tau(  14) = (   0.3336631   0.1981683   0.0000000  )
        15           B   tau(  15) = (   0.2546751   0.3578782   0.0000000  )
        16           B   tau(  16) = (   0.1588611   0.4834120   0.0000000  )
        17           B   tau(  17) = (   0.0789224   0.6261105   0.0000000  )
        18           B   tau(  18) = (  -0.0024546   0.7699354   0.0000000  )
        19           B   tau(  19) = (   0.5846248   0.0451102   0.0000000  )
        20           B   tau(  20) = (   0.5064755   0.1881482   0.0000000  )
        21           N   tau(  21) = (   0.4260800   0.3291302   0.0000000  )
        22           B   tau(  22) = (   0.3155230   0.4633439   0.0000000  )
        23           B   tau(  23) = (   0.2462540   0.6223670   0.0000000  )
        24           B   tau(  24) = (   0.1656720   0.7673662   0.0000000  )
        25           B   tau(  25) = (   0.7520190   0.0439266   0.0000000  )
        26           B   tau(  26) = (   0.6714598   0.1874806   0.0000000  )
        27           B   tau(  27) = (   0.5883275   0.3299671   0.0000000  )
        28           B   tau(  28) = (   0.4932614   0.4747059   0.0000000  )
        29           B   tau(  29) = (   0.4114441   0.6152560   0.0000000  )
        30           B   tau(  30) = (   0.3331457   0.7648684   0.0000000  )
        31           B   tau(  31) = (   0.9181404   0.0450561   0.0000000  )
        32           B   tau(  32) = (   0.8360567   0.1895033   0.0000000  )
        33           B   tau(  33) = (   0.7513165   0.3338790   0.0000000  )
        34           B   tau(  34) = (   0.6635296   0.4780705   0.0000000  )
        35           B   tau(  35) = (   0.5794646   0.6208629   0.0000000  )
        36           B   tau(  36) = (   0.4986256   0.7652716   0.0000000  )
        37           N   tau(  37) = (   0.0010727   0.0949847   0.0000000  )
        38           N   tau(  38) = (  -0.0819014   0.2389839   0.0000000  )
        39           N   tau(  39) = (  -0.1674703   0.3833589   0.0000000  )
        40           N   tau(  40) = (  -0.2539912   0.5273811   0.0000000  )
        41           N   tau(  41) = (  -0.3370334   0.6711714   0.0000000  )
        42           N   tau(  42) = (  -0.4177863   0.8164459   0.0000000  )
        43           N   tau(  43) = (   0.1683868   0.0997973   0.0000000  )
        44           N   tau(  44) = (   0.0847914   0.2416709   0.0000000  )
        45           N   tau(  45) = (  -0.0023914   0.3850430   0.0000000  )
        46           N   tau(  46) = (  -0.0879968   0.5292310   0.0000000  )
        47           N   tau(  47) = (  -0.1704738   0.6735505   0.0000000  )
        48           N   tau(  48) = (  -0.2516982   0.8189162   0.0000000  )
        49           N   tau(  49) = (   0.3341104   0.1005138   0.0000000  )
        50           N   tau(  50) = (   0.2556285   0.2520674   0.0000000  )
        51           N   tau(  51) = (   0.1623598   0.3883694   0.0000000  )
        52           N   tau(  52) = (   0.0765423   0.5308866   0.0000000  )
        53           N   tau(  53) = (  -0.0042490   0.6743177   0.0000000  )
        54           N   tau(  54) = (  -0.0855996   0.8189399   0.0000000  )
        55           N   tau(  55) = (   0.5014833   0.0940017   0.0000000  )
        56           N   tau(  56) = (   0.4254034   0.2410436   0.0000000  )
        57           N   tau(  57) = (   0.2428985   0.5279693   0.0000000  )
        58           N   tau(  58) = (   0.1634151   0.6722213   0.0000000  )
        59           N   tau(  59) = (   0.0823651   0.8160737   0.0000000  )
        60           N   tau(  60) = (   0.6687407   0.0922393   0.0000000  )
        61           N   tau(  61) = (   0.5883628   0.2353934   0.0000000  )
        62           N   tau(  62) = (   0.5019893   0.3738051   0.0000000  )
        63           N   tau(  63) = (   0.4076537   0.5154788   0.0000000  )
        64           N   tau(  64) = (   0.3311433   0.6684951   0.0000000  )
        65           N   tau(  65) = (   0.2502118   0.8141606   0.0000000  )
        66           N   tau(  66) = (   0.8348669   0.0931436   0.0000000  )
        67           N   tau(  67) = (   0.7525898   0.2374831   0.0000000  )
        68           N   tau(  68) = (   0.6673541   0.3813869   0.0000000  )
        69           N   tau(  69) = (   0.5780310   0.5230787   0.0000000  )
        70           N   tau(  70) = (   0.4958685   0.6670665   0.0000000  )
        71           N   tau(  71) = (   0.4163473   0.8142908   0.0000000  )

     number of k points=     1
                       cart. coord. in units 2pi/alat
        k(    1) = (   0.0000000   0.0000000   0.0000000), wk =   1.0000000

     Dense  grid:  1457633 G-vectors     FFT dimensions: ( 135, 135, 180)

     Occupations read from input 

      Spin-up

        1.0000   1.0000   1.0000   1.0000   1.0000   1.0000   1.0000   1.0000
        1.0000   1.0000   1.0000   1.0000   1.0000   1.0000   1.0000   1.0000
        1.0000   1.0000   1.0000   1.0000   1.0000   1.0000   1.0000   1.0000
        1.0000   1.0000   1.0000   1.0000   1.0000   1.0000   1.0000   1.0000
        1.0000   1.0000   1.0000   1.0000   1.0000   1.0000   1.0000   1.0000
        1.0000   1.0000   1.0000   1.0000   1.0000   1.0000   1.0000   1.0000
        1.0000   1.0000   1.0000   1.0000   1.0000   1.0000   1.0000   1.0000
        1.0000   1.0000   1.0000   1.0000   1.0000   1.0000   1.0000   1.0000
        1.0000   1.0000   1.0000   1.0000   1.0000   1.0000   1.0000   1.0000
        1.0000   1.0000   1.0000   1.0000   1.0000   1.0000   1.0000   1.0000
        1.0000   1.0000   1.0000   1.0000   1.0000   1.0000   1.0000   1.0000
        1.0000   1.0000   1.0000   1.0000   1.0000   1.0000   1.0000   1.0000
        1.0000   1.0000   1.0000   1.0000   1.0000   1.0000   1.0000   1.0000
        1.0000   1.0000   1.0000   1.0000   1.0000   1.0000   1.0000   1.0000
        1.0000   1.0000   1.0000   1.0000   1.0000   1.0000   1.0000   1.0000
        1.0000   1.0000   1.0000   1.0000   1.0000   1.0000   1.0000   1.0000
        1.0000   1.0000   1.0000   1.0000   1.0000   1.0000   1.0000   1.0000
        1.0000   1.0000   1.0000   1.0000   1.0000   1.0000   0.0000   1.0000
        0.0000   0.0000   0.0000   0.0000   0.0000   0.0000   0.0000

      Spin-down

        1.0000   1.0000   1.0000   1.0000   1.0000   1.0000   1.0000   1.0000
        1.0000   1.0000   1.0000   1.0000   1.0000   1.0000   1.0000   1.0000
        1.0000   1.0000   1.0000   1.0000   1.0000   1.0000   1.0000   1.0000
        1.0000   1.0000   1.0000   1.0000   1.0000   1.0000   1.0000   1.0000
        1.0000   1.0000   1.0000   1.0000   1.0000   1.0000   1.0000   1.0000
        1.0000   1.0000   1.0000   1.0000   1.0000   1.0000   1.0000   1.0000
        1.0000   1.0000   1.0000   1.0000   1.0000   1.0000   1.0000   1.0000
        1.0000   1.0000   1.0000   1.0000   1.0000   1.0000   1.0000   1.0000
        1.0000   1.0000   1.0000   1.0000   1.0000   1.0000   1.0000   1.0000
        1.0000   1.0000   1.0000   1.0000   1.0000   1.0000   1.0000   1.0000
        1.0000   1.0000   1.0000   1.0000   1.0000   1.0000   1.0000   1.0000
        1.0000   1.0000   1.0000   1.0000   1.0000   1.0000   1.0000   1.0000
        1.0000   1.0000   1.0000   1.0000   1.0000   1.0000   1.0000   1.0000
        1.0000   1.0000   1.0000   1.0000   1.0000   1.0000   1.0000   1.0000
        1.0000   1.0000   1.0000   1.0000   1.0000   1.0000   1.0000   1.0000
        1.0000   1.0000   1.0000   1.0000   1.0000   1.0000   1.0000   1.0000
        1.0000   1.0000   1.0000   1.0000   1.0000   1.0000   1.0000   1.0000
        1.0000   1.0000   1.0000   1.0000   1.0000   1.0000   0.0000   0.0000
        0.0000   0.0000   0.0000   0.0000   0.0000   0.0000   0.0000

     Estimated max dynamical RAM per process >     320.92MB

     Estimated total allocated dynamical RAM >   10269.45MB
     Generating pointlists ...
     new r_m :   0.0389 (alat units)  1.1056 (a.u.) for type    1
     new r_m :   0.0363 (alat units)  1.0329 (a.u.) for type    2

     Initial potential from superposition of free atoms
     Check: negative starting charge=(component1):   -0.003141
     Check: negative starting charge=(component2):   -0.001047

     starting charge  284.99101, renormalised to  285.00000

     negative rho (up, down):  3.141E-03 1.047E-03
     Starting wfc are  284 randomized atomic wfcs

     total cpu time spent up to now is       11.2 secs

     per-process dynamical memory:   237.9 Mb

     Self-consistent Calculation

     iteration #  1     ecut=    55.00 Ry     beta=0.70
     Davidson diagonalization with overlap
     ethr =  1.00E-02,  avg # of iterations =  2.0

     negative rho (up, down):  5.128E-04 1.063E-04

     total cpu time spent up to now is       20.8 secs

     total energy              =    -914.87721614 Ry
     Harris-Foulkes estimate   =    -914.83389572 Ry
     estimated scf accuracy    <      16.99501817 Ry

     total magnetization       =     1.00 Bohr mag/cell
     absolute magnetization    =    10.54 Bohr mag/cell

     iteration #  2     ecut=    55.00 Ry     beta=0.70
     Davidson diagonalization with overlap
     ethr =  5.96E-03,  avg # of iterations =  4.0

     negative rho (up, down):  2.521E-04 3.157E-05

     total cpu time spent up to now is       31.2 secs

     total energy              =    -916.62969859 Ry
     Harris-Foulkes estimate   =    -922.07097086 Ry
     estimated scf accuracy    <      11.62414259 Ry

     total magnetization       =     1.00 Bohr mag/cell
     absolute magnetization    =     4.58 Bohr mag/cell

     iteration #  3     ecut=    55.00 Ry     beta=0.70
     Davidson diagonalization with overlap
     ethr =  4.08E-03,  avg # of iterations =  5.5

     negative rho (up, down):  1.326E-04 9.686E-06

     total cpu time spent up to now is       40.9 secs

     total energy              =    -918.42351467 Ry
     Harris-Foulkes estimate   =    -921.30520255 Ry
     estimated scf accuracy    <       8.33154278 Ry

     total magnetization       =     1.00 Bohr mag/cell
     absolute magnetization    =     3.85 Bohr mag/cell

     iteration #  4     ecut=    55.00 Ry     beta=0.70
     Davidson diagonalization with overlap
     ethr =  2.92E-03,  avg # of iterations =  5.0

     negative rho (up, down):  7.587E-06 7.532E-09

     total cpu time spent up to now is       49.1 secs

     total energy              =    -920.25443208 Ry
     Harris-Foulkes estimate   =    -920.37370105 Ry
     estimated scf accuracy    <       0.55125869 Ry

     total magnetization       =     1.00 Bohr mag/cell
     absolute magnetization    =     3.40 Bohr mag/cell

     iteration #  5     ecut=    55.00 Ry     beta=0.70
     Davidson diagonalization with overlap
     ethr =  1.93E-04,  avg # of iterations =  7.5

     total cpu time spent up to now is       60.1 secs

     total energy              =    -920.29808119 Ry
     Harris-Foulkes estimate   =    -920.59077606 Ry
     estimated scf accuracy    <       0.90720953 Ry

     total magnetization       =     1.00 Bohr mag/cell
     absolute magnetization    =     2.14 Bohr mag/cell

     iteration #  6     ecut=    55.00 Ry     beta=0.70
     Davidson diagonalization with overlap
     ethr =  1.93E-04,  avg # of iterations =  5.0

     total cpu time spent up to now is       68.8 secs

     total energy              =    -920.44504168 Ry
     Harris-Foulkes estimate   =    -920.46458854 Ry
     estimated scf accuracy    <       0.07165297 Ry

     total magnetization       =     1.00 Bohr mag/cell
     absolute magnetization    =     1.88 Bohr mag/cell

     iteration #  7     ecut=    55.00 Ry     beta=0.70
     Davidson diagonalization with overlap
     ethr =  2.51E-05,  avg # of iterations =  4.0

     total cpu time spent up to now is       77.9 secs

     total energy              =    -920.45308570 Ry
     Harris-Foulkes estimate   =    -920.45555187 Ry
     estimated scf accuracy    <       0.01727175 Ry

     total magnetization       =     1.00 Bohr mag/cell
     absolute magnetization    =     1.53 Bohr mag/cell

     iteration #  8     ecut=    55.00 Ry     beta=0.70
     Davidson diagonalization with overlap
     ethr =  6.06E-06,  avg # of iterations = 14.5

     total cpu time spent up to now is       89.6 secs

     total energy              =    -920.45638431 Ry
     Harris-Foulkes estimate   =    -920.45659068 Ry
     estimated scf accuracy    <       0.00256705 Ry

     total magnetization       =     1.00 Bohr mag/cell
     absolute magnetization    =     1.22 Bohr mag/cell

     iteration #  9     ecut=    55.00 Ry     beta=0.70
     Davidson diagonalization with overlap
     ethr =  9.01E-07,  avg # of iterations =  6.0

     total cpu time spent up to now is       99.1 secs

     total energy              =    -920.45684675 Ry
     Harris-Foulkes estimate   =    -920.45689636 Ry
     estimated scf accuracy    <       0.00068233 Ry

     total magnetization       =     1.00 Bohr mag/cell
     absolute magnetization    =     1.17 Bohr mag/cell

     iteration # 10     ecut=    55.00 Ry     beta=0.70
     Davidson diagonalization with overlap
     ethr =  2.39E-07,  avg # of iterations =  4.0

     total cpu time spent up to now is      109.2 secs

     total energy              =    -920.45705720 Ry
     Harris-Foulkes estimate   =    -920.45702200 Ry
     estimated scf accuracy    <       0.00010495 Ry

     total magnetization       =     1.00 Bohr mag/cell
     absolute magnetization    =     1.15 Bohr mag/cell

     iteration # 11     ecut=    55.00 Ry     beta=0.70
     Davidson diagonalization with overlap
     ethr =  3.68E-08,  avg # of iterations =  4.5

     total cpu time spent up to now is      118.8 secs

     total energy              =    -920.45709791 Ry
     Harris-Foulkes estimate   =    -920.45708507 Ry
     estimated scf accuracy    <       0.00003103 Ry

     total magnetization       =     1.00 Bohr mag/cell
     absolute magnetization    =     1.16 Bohr mag/cell

     iteration # 12     ecut=    55.00 Ry     beta=0.70
     Davidson diagonalization with overlap
     ethr =  1.09E-08,  avg # of iterations =  3.5

     total cpu time spent up to now is      129.1 secs

     total energy              =    -920.45711232 Ry
     Harris-Foulkes estimate   =    -920.45711061 Ry
     estimated scf accuracy    <       0.00001357 Ry

     total magnetization       =     1.00 Bohr mag/cell
     absolute magnetization    =     1.17 Bohr mag/cell

     iteration # 13     ecut=    55.00 Ry     beta=0.70
     Davidson diagonalization with overlap
     ethr =  4.76E-09,  avg # of iterations =  3.5

     total cpu time spent up to now is      139.4 secs

     total energy              =    -920.45711855 Ry
     Harris-Foulkes estimate   =    -920.45712050 Ry
     estimated scf accuracy    <       0.00000720 Ry

     total magnetization       =     1.00 Bohr mag/cell
     absolute magnetization    =     1.18 Bohr mag/cell

     iteration # 14     ecut=    55.00 Ry     beta=0.70
     Davidson diagonalization with overlap
     ethr =  2.53E-09,  avg # of iterations =  4.0
 
     Magnetic moment per site:
     atom:    1    charge:    0.8091    magn:    0.0005    constr:    0.0000
     atom:    2    charge:    0.8226    magn:    0.0013    constr:    0.0000
     atom:    3    charge:    0.8329    magn:    0.0000    constr:    0.0000
     atom:    4    charge:    0.8299    magn:    0.0005    constr:    0.0000
     atom:    5    charge:    0.8259    magn:    0.0002    constr:    0.0000
     atom:    6    charge:    0.8196    magn:    0.0019    constr:    0.0000
     atom:    7    charge:    0.8167    magn:    0.0006    constr:    0.0000
     atom:    8    charge:    0.7887    magn:    0.0025    constr:    0.0000
     atom:    9    charge:    0.8381    magn:    0.0065    constr:    0.0000
     atom:   10    charge:    0.8385    magn:    0.0044    constr:    0.0000
     atom:   11    charge:    0.8309    magn:    0.0015    constr:    0.0000
     atom:   12    charge:    0.8264    magn:    0.0002    constr:    0.0000
     atom:   13    charge:    0.8238    magn:    0.0003    constr:    0.0000
     atom:   14    charge:    0.8061    magn:    0.0059    constr:    0.0000
     atom:   15    charge:    0.7343    magn:    0.0676    constr:    0.0000
     atom:   16    charge:    0.8620    magn:    0.0180    constr:    0.0000
     atom:   17    charge:    0.8389    magn:    0.0043    constr:    0.0000
     atom:   18    charge:    0.8300    magn:    0.0005    constr:    0.0000
     atom:   19    charge:    0.8358    magn:    0.0003    constr:    0.0000
     atom:   20    charge:    0.8590    magn:    0.0025    constr:    0.0000
     atom:   21    charge:    2.3140    magn:    0.0225    constr:    0.0000
     atom:   22    charge:    0.7341    magn:    0.0675    constr:    0.0000
     atom:   23    charge:    0.8380    magn:    0.0065    constr:    0.0000
     atom:   24    charge:    0.8336    magn:    0.0000    constr:    0.0000
     atom:   25    charge:    0.8317    magn:   -0.0000    constr:    0.0000
     atom:   26    charge:    0.8460    magn:    0.0008    constr:    0.0000
     atom:   27    charge:    0.8586    magn:    0.0025    constr:    0.0000
     atom:   28    charge:    0.8063    magn:    0.0058    constr:    0.0000
     atom:   29    charge:    0.7892    magn:    0.0025    constr:    0.0000
     atom:   30    charge:    0.8220    magn:    0.0012    constr:    0.0000
     atom:   31    charge:    0.8234    magn:    0.0026    constr:    0.0000
     atom:   32    charge:    0.8316    magn:   -0.0000    constr:    0.0000
     atom:   33    charge:    0.8356    magn:    0.0003    constr:    0.0000
     atom:   34    charge:    0.8229    magn:    0.0003    constr:    0.0000
     atom:   35    charge:    0.8172    magn:    0.0006    constr:    0.0000
     atom:   36    charge:    0.8083    magn:    0.0005    constr:    0.0000
     atom:   37    charge:    2.4204    magn:   -0.0007    constr:    0.0000
     atom:   38    charge:    2.4219    magn:    0.0021    constr:    0.0000
     atom:   39    charge:    2.4277    magn:    0.0001    constr:    0.0000
     atom:   40    charge:    2.4195    magn:   -0.0004    constr:    0.0000
     atom:   41    charge:    2.4126    magn:   -0.0004    constr:    0.0000
     atom:   42    charge:    2.4097    magn:   -0.0006    constr:    0.0000
     atom:   43    charge:    2.4043    magn:   -0.0010    constr:    0.0000
     atom:   44    charge:    2.4187    magn:    0.0020    constr:    0.0000
     atom:   45    charge:    2.4278    magn:   -0.0020    constr:    0.0000
     atom:   46    charge:    2.4286    magn:   -0.0009    constr:    0.0000
     atom:   47    charge:    2.4227    magn:   -0.0002    constr:    0.0000
     atom:   48    charge:    2.4129    magn:   -0.0004    constr:    0.0000
     atom:   49    charge:    2.4053    magn:   -0.0017    constr:    0.0000
     atom:   50    charge:    2.3648    magn:   -0.0034    constr:    0.0000
     atom:   51    charge:    2.4334    magn:   -0.0073    constr:    0.0000
     atom:   52    charge:    2.4414    magn:   -0.0042    constr:    0.0000
     atom:   53    charge:    2.4291    magn:   -0.0009    constr:    0.0000
     atom:   54    charge:    2.4192    magn:   -0.0004    constr:    0.0000
     atom:   55    charge:    2.4315    magn:    0.0005    constr:    0.0000
     atom:   56    charge:    2.3934    magn:   -0.0004    constr:    0.0000
     atom:   57    charge:    2.4338    magn:   -0.0073    constr:    0.0000
     atom:   58    charge:    2.4272    magn:   -0.0020    constr:    0.0000
     atom:   59    charge:    2.4269    magn:    0.0001    constr:    0.0000
     atom:   60    charge:    2.4290    magn:    0.0003    constr:    0.0000
     atom:   61    charge:    2.4423    magn:    0.0007    constr:    0.0000
     atom:   62    charge:    2.3936    magn:   -0.0004    constr:    0.0000
     atom:   63    charge:    2.3647    magn:   -0.0033    constr:    0.0000
     atom:   64    charge:    2.4193    magn:    0.0020    constr:    0.0000
     atom:   65    charge:    2.4239    magn:    0.0021    constr:    0.0000
     atom:   66    charge:    2.4248    magn:   -0.0003    constr:    0.0000
     atom:   67    charge:    2.4293    magn:    0.0003    constr:    0.0000
     atom:   68    charge:    2.4296    magn:    0.0005    constr:    0.0000
     atom:   69    charge:    2.4047    magn:   -0.0017    constr:    0.0000
     atom:   70    charge:    2.4026    magn:   -0.0010    constr:    0.0000
     atom:   71    charge:    2.4206    magn:   -0.0007    constr:    0.0000

     total cpu time spent up to now is      147.6 secs

     End of self-consistent calculation

 ------ SPIN UP ------------


          k = 0.0000 0.0000 0.0000 (182351 PWs)   bands (ev):

   -26.1837 -22.1544 -21.8933 -21.4415 -21.3107 -21.2280 -21.0848 -20.9494
   -20.6298 -20.5287 -20.3610 -20.1756 -20.1625 -20.1122 -19.9959 -19.8443
   -19.7036 -19.6790 -19.5313 -19.4098 -19.2113 -19.0145 -18.9638 -18.9037
   -18.8801 -18.8136 -18.7280 -18.6322 -18.6270 -18.5888 -18.5280 -18.3990
   -18.3426 -18.1549 -17.7486 -16.4069 -13.9345 -13.6547 -13.1484 -12.8906
   -12.7152 -12.4967 -12.3316 -12.3184 -12.2843 -12.1592 -12.1223 -12.0415
   -12.0384 -12.0217 -11.8701 -11.8607 -11.6047 -11.4550 -11.3466 -11.2225
   -11.0731 -11.0255 -10.8652 -10.8499 -10.8272 -10.5032 -10.2943 -10.0462
   -10.0334  -9.8381  -9.8289  -9.6783  -9.6416  -9.5753  -9.5548  -9.4661
    -9.4022  -9.3787  -9.3067  -9.2951  -9.2827  -9.2475  -8.9577  -8.9551
    -8.8871  -8.8322  -8.7900  -8.6062  -8.4944  -8.4490  -8.4394  -8.3497
    -8.2970  -8.2062  -8.1255  -8.0977  -8.0674  -7.9978  -7.9916  -7.9097
    -7.8298  -7.7721  -7.7447  -7.6897  -7.6483  -7.5299  -7.4993  -7.4826
    -7.4039  -7.3554  -7.2094  -7.2078  -7.1833  -7.1450  -6.9338  -6.9096
    -6.8136  -6.7862  -6.7357  -6.6073  -6.5977  -6.5248  -6.3478  -6.3387
    -6.1965  -6.1627  -6.1404  -5.9275  -5.6337  -5.5836  -5.5361  -5.4600
    -5.4143  -5.3099  -5.2537  -5.2418  -5.1794  -5.0773  -5.0278  -4.9631
    -4.9573  -4.8301  -4.6533  -4.2798  -3.9917  -3.6396  -2.6958  -0.3024
     0.3002   0.5146   0.5161   0.5857   0.5985   0.8795   0.9996

 ------ SPIN DOWN ----------


          k = 0.0000 0.0000 0.0000 (182351 PWs)   bands (ev):

   -26.1549 -22.1498 -21.8904 -21.4391 -21.3091 -21.2253 -21.0813 -20.9463
   -20.6206 -20.5264 -20.3586 -20.1727 -20.1577 -20.1103 -19.9938 -19.8409
   -19.6977 -19.6746 -19.5233 -19.4043 -19.2072 -19.0132 -18.9540 -18.9022
   -18.8791 -18.8126 -18.7258 -18.6292 -18.6239 -18.5880 -18.5216 -18.3931
   -18.3392 -18.1518 -17.7441 -16.3853 -13.9244 -13.6483 -13.1456 -12.8838
   -12.7061 -12.4926 -12.3280 -12.3132 -12.2785 -12.1571 -12.1058 -12.0367
   -12.0264 -12.0189 -11.8641 -11.8472 -11.5933 -11.4470 -11.3158 -11.2157
   -11.0582 -11.0194 -10.8353 -10.8133 -10.7923 -10.4858 -10.2611 -10.0382
   -10.0303  -9.8354  -9.8224  -9.6697  -9.6381  -9.5674  -9.5531  -9.4521
    -9.3975  -9.3661  -9.3018  -9.2835  -9.2698  -9.2293  -8.9447  -8.9415
    -8.8787  -8.8220  -8.7663  -8.5958  -8.4774  -8.4437  -8.4123  -8.3388
    -8.2865  -8.2034  -8.1203  -8.0930  -8.0660  -7.9961  -7.9604  -7.9044
    -7.7814  -7.7707  -7.7338  -7.6875  -7.6443  -7.5264  -7.4862  -7.4798
    -7.3995  -7.3422  -7.1969  -7.1962  -7.1565  -7.1355  -6.9199  -6.9006
    -6.8065  -6.7720  -6.7217  -6.5959  -6.5809  -6.4877  -6.3471  -6.2702
    -6.1649  -6.1562  -6.1330  -5.9156  -5.5815  -5.5796  -5.5090  -5.4366
    -5.4047  -5.3044  -5.2479  -5.2363  -5.1734  -5.0677  -5.0108  -4.9432
    -4.9381  -4.8167  -4.6010  -4.2475  -3.9646  -3.3981  -2.5794   0.3352
     0.4605   0.5359   0.5403   0.6366   0.6411   0.9479   1.0266

     highest occupied, lowest unoccupied level (ev):    -3.3981   -2.6958

!    total energy              =    -920.45712046 Ry
     Harris-Foulkes estimate   =    -920.45712006 Ry
     estimated scf accuracy    <       0.00000065 Ry

     The total energy is the sum of the following terms:

     one-electron contribution =   -7782.06984354 Ry
     hartree contribution      =    3943.02531976 Ry
     xc contribution           =    -262.19792113 Ry
     ewald contribution        =    3180.78532445 Ry

     total magnetization       =     1.00 Bohr mag/cell
     absolute magnetization    =     1.19 Bohr mag/cell

     convergence has been achieved in  14 iterations

     Writing output data file BN.save
 
     init_run     :      7.83s CPU      8.16s WALL (       1 calls)
     electrons    :    135.01s CPU    136.74s WALL (       1 calls)

     Called by init_run:
     wfcinit      :      4.25s CPU      4.34s WALL (       1 calls)
     potinit      :      1.06s CPU      1.11s WALL (       1 calls)

     Called by electrons:
     c_bands      :    112.38s CPU    113.54s WALL (      14 calls)
     sum_band     :     14.65s CPU     14.81s WALL (      14 calls)
     v_of_rho     :      5.77s CPU      6.03s WALL (      15 calls)
     mix_rho      :      1.84s CPU      1.94s WALL (      14 calls)

     Called by c_bands:
     init_us_2    :      1.25s CPU      1.27s WALL (      29 calls)
     cegterg      :    104.97s CPU    106.09s WALL (      14 calls)

     Called by sum_band:

     Called by *egterg:
     h_psi        :     79.17s CPU     79.25s WALL (      92 calls)
     g_psi        :      0.29s CPU      0.29s WALL (      77 calls)
     cdiaghg      :      4.59s CPU      4.84s WALL (      91 calls)

     Called by h_psi:
     h_psi:pot    :     78.38s CPU     78.46s WALL (      92 calls)
     h_psi:calbec :     11.05s CPU     11.05s WALL (      92 calls)
     vloc_psi     :     55.81s CPU     55.89s WALL (      92 calls)
     add_vuspsi   :     11.53s CPU     11.52s WALL (      92 calls)

     General routines
     calbec       :     11.05s CPU     11.05s WALL (      92 calls)
     fft          :      2.29s CPU      2.67s WALL (     312 calls)
     fftw         :     50.92s CPU     50.97s WALL (   14402 calls)
 
     Parallel routines
     fft_scatter  :     16.52s CPU     16.87s WALL (   14714 calls)
 
     PWSCF        :  2m26.85s CPU     2m33.62s WALL

 
   This run was terminated on:  22:12:45  28Apr2020            

=------------------------------------------------------------------------------=
   JOB DONE.
=------------------------------------------------------------------------------=
