
     Program PWSCF v.6.1 (svn rev. 13369) starts on 28Apr2020 at 22:12:40 

     This program is part of the open-source Quantum ESPRESSO suite
     for quantum simulation of materials; please cite
         "P. Giannozzi et al., J. Phys.:Condens. Matter 21 395502 (2009);
          URL http://www.quantum-espresso.org", 
     in publications or presentations arising from this work. More details at
     http://www.quantum-espresso.org/quote

     Parallel version (MPI), running on    32 processors
     K-points division:     npool     =       2
     R & G space division:  proc/nbgrp/npool/nimage =      16
     Reading input from scf.in
Warning: card &IONS ignored
Warning: card / ignored

     Current dimensions of program PWSCF are:
     Max number of different atomic species (ntypx) = 10
     Max number of k-points (npk) =  40000
     Max angular momentum in pseudopotentials (lmaxx) =  3

     Subspace diagonalization in iterative solution of the eigenvalue problem:
     one sub-group per band group will be used
     scalapack distributed-memory algorithm (size of sub-group:  4*  4 procs)

 
     Parallelization info
     --------------------
     sticks:   dense  smooth     PW     G-vecs:    dense   smooth      PW
     Min         766     766    191                91100    91100   11396
     Max         767     767    193                91105    91105   11399
     Sum       12259   12259   3067              1457633  1457633  182351
 


     bravais-lattice index     =            0
     lattice parameter (alat)  =      28.4285  a.u.
     unit-cell volume          =   26452.5957 (a.u.)^3
     number of atoms/cell      =           71
     number of atomic types    =            2
     number of electrons       =       285.00
     number of Kohn-Sham states=          151
     kinetic-energy cutoff     =      55.0000  Ry
     charge density cutoff     =     220.0000  Ry
     convergence threshold     =      1.0E-06
     mixing beta               =       0.7000
     number of iterations used =            8  plain     mixing
     Exchange-correlation      = PBE ( 1  4  3  4 0 0)

     celldm(1)=  28.428530  celldm(2)=   0.000000  celldm(3)=   0.000000
     celldm(4)=   0.000000  celldm(5)=   0.000000  celldm(6)=   0.000000

     crystal axes: (cart. coord. in units of alat)
               a(1) = (   1.000000   0.000000   0.000000 )  
               a(2) = (  -0.500000   0.866025   0.000000 )  
               a(3) = (   0.000000   0.000000   1.329458 )  

     reciprocal axes: (cart. coord. in units 2 pi/alat)
               b(1) = (  1.000000  0.577350  0.000000 )  
               b(2) = (  0.000000  1.154701  0.000000 )  
               b(3) = (  0.000000  0.000000  0.752187 )  


     PseudoPot. # 1 for B  read from file:
     /home/tjsmart/Pseudo/B_ONCV_PBE-1.0.upf
     MD5 check sum: a9fd2462c33df863cd3ce8a66ea40380
     Pseudo is Norm-conserving, Zval =  3.0
     Generated using ONCVPSP code by D. R. Hamann
     Using radial grid of 1534 points,  4 beta functions with: 
                l(1) =   0
                l(2) =   0
                l(3) =   1
                l(4) =   1

     PseudoPot. # 2 for N  read from file:
     /home/tjsmart/Pseudo/N_ONCV_PBE-1.0.upf
     MD5 check sum: 09890da6b2972017450f7114a6086fad
     Pseudo is Norm-conserving, Zval =  5.0
     Generated using ONCVPSP code by D. R. Hamann
     Using radial grid of 1058 points,  4 beta functions with: 
                l(1) =   0
                l(2) =   0
                l(3) =   1
                l(4) =   1

     atomic species   valence    mass     pseudopotential
        B              3.00    10.81100     B ( 1.00)
        N              5.00    14.00670     N ( 1.00)

     Starting magnetic structure 
     atomic species   magnetization
        B            0.500
        N            0.500

      2 Sym. Ops. (no inversion) found



   Cartesian axes

     site n.     atom                  positions (alat units)
         1           B   tau(   1) = (   0.0847146   0.0483612   0.0000000  )
         2           B   tau(   2) = (   0.0023582   0.1918086   0.0000000  )
         3           B   tau(   3) = (  -0.0835956   0.3355820   0.0000000  )
         4           B   tau(   4) = (  -0.1699707   0.4799089   0.0000000  )
         5           B   tau(   5) = (  -0.2535376   0.6241906   0.0000000  )
         6           B   tau(   6) = (  -0.3350839   0.7685837   0.0000000  )
         7           B   tau(   7) = (   0.2500897   0.0504200   0.0000000  )
         8           B   tau(   8) = (   0.1711180   0.1989048   0.0000000  )
         9           B   tau(   9) = (   0.0823262   0.3383769   0.0000000  )
        10           B   tau(  10) = (  -0.0047764   0.4813103   0.0000000  )
        11           B   tau(  11) = (  -0.0872646   0.6255220   0.0000000  )
        12           B   tau(  12) = (  -0.1692289   0.7701506   0.0000000  )
        13           B   tau(  13) = (   0.4158132   0.0489993   0.0000000  )
        14           B   tau(  14) = (   0.3333836   0.1981796   0.0000000  )
        15           B   tau(  15) = (   0.2548911   0.3583561   0.0000000  )
        16           B   tau(  16) = (   0.1587316   0.4834863   0.0000000  )
        17           B   tau(  17) = (   0.0788408   0.6261365   0.0000000  )
        18           B   tau(  18) = (  -0.0024817   0.7699530   0.0000000  )
        19           B   tau(  19) = (   0.5846895   0.0450353   0.0000000  )
        20           B   tau(  20) = (   0.5066921   0.1880118   0.0000000  )
        21           N   tau(  21) = (   0.4265696   0.3288431   0.0000000  )
        22           B   tau(  22) = (   0.3152225   0.4629337   0.0000000  )
        23           B   tau(  23) = (   0.2461873   0.6222505   0.0000000  )
        24           B   tau(  24) = (   0.1656836   0.7673005   0.0000000  )
        25           B   tau(  25) = (   0.7520926   0.0438505   0.0000000  )
        26           B   tau(  26) = (   0.6716351   0.1873808   0.0000000  )
        27           B   tau(  27) = (   0.5885468   0.3298440   0.0000000  )
        28           B   tau(  28) = (   0.4931046   0.4749441   0.0000000  )
        29           B   tau(  29) = (   0.4113975   0.6152069   0.0000000  )
        30           B   tau(  30) = (   0.3331579   0.7647861   0.0000000  )
        31           B   tau(  31) = (   0.9181814   0.0450352   0.0000000  )
        32           B   tau(  32) = (   0.8361565   0.1894749   0.0000000  )
        33           B   tau(  33) = (   0.7514104   0.3338631   0.0000000  )
        34           B   tau(  34) = (   0.6634980   0.4780907   0.0000000  )
        35           B   tau(  35) = (   0.5794159   0.6208999   0.0000000  )
        36           B   tau(  36) = (   0.4986143   0.7652712   0.0000000  )
        37           N   tau(  37) = (   0.0010873   0.0949927   0.0000000  )
        38           N   tau(  38) = (  -0.0818693   0.2389890   0.0000000  )
        39           N   tau(  39) = (  -0.1674641   0.3833681   0.0000000  )
        40           N   tau(  40) = (  -0.2540681   0.5273780   0.0000000  )
        41           N   tau(  41) = (  -0.3370738   0.6711773   0.0000000  )
        42           N   tau(  42) = (  -0.4177942   0.8164549   0.0000000  )
        43           N   tau(  43) = (   0.1683939   0.0998188   0.0000000  )
        44           N   tau(  44) = (   0.0848090   0.2417047   0.0000000  )
        45           N   tau(  45) = (  -0.0024195   0.3850972   0.0000000  )
        46           N   tau(  46) = (  -0.0881022   0.5292800   0.0000000  )
        47           N   tau(  47) = (  -0.1705422   0.6735858   0.0000000  )
        48           N   tau(  48) = (  -0.2517232   0.8189395   0.0000000  )
        49           N   tau(  49) = (   0.3341164   0.1005727   0.0000000  )
        50           N   tau(  50) = (   0.2556582   0.2520545   0.0000000  )
        51           N   tau(  51) = (   0.1622940   0.3884976   0.0000000  )
        52           N   tau(  52) = (   0.0763777   0.5309771   0.0000000  )
        53           N   tau(  53) = (  -0.0043449   0.6743854   0.0000000  )
        54           N   tau(  54) = (  -0.0856349   0.8189991   0.0000000  )
        55           N   tau(  55) = (   0.5015301   0.0939880   0.0000000  )
        56           N   tau(  56) = (   0.4255800   0.2411603   0.0000000  )
        57           N   tau(  57) = (   0.2427513   0.5279653   0.0000000  )
        58           N   tau(  58) = (   0.1633523   0.6722148   0.0000000  )
        59           N   tau(  59) = (   0.0823652   0.8160617   0.0000000  )
        60           N   tau(  60) = (   0.6687877   0.0921994   0.0000000  )
        61           N   tau(  61) = (   0.5884632   0.2353338   0.0000000  )
        62           N   tau(  62) = (   0.5019672   0.3735948   0.0000000  )
        63           N   tau(  63) = (   0.4076800   0.5154743   0.0000000  )
        64           N   tau(  64) = (   0.3311229   0.6684693   0.0000000  )
        65           N   tau(  65) = (   0.2502217   0.8141258   0.0000000  )
        66           N   tau(  66) = (   0.8348889   0.0931295   0.0000000  )
        67           N   tau(  67) = (   0.7526495   0.2374649   0.0000000  )
        68           N   tau(  68) = (   0.6673820   0.3813518   0.0000000  )
        69           N   tau(  69) = (   0.5779735   0.5230428   0.0000000  )
        70           N   tau(  70) = (   0.4958535   0.6670602   0.0000000  )
        71           N   tau(  71) = (   0.4163513   0.8142794   0.0000000  )

     number of k points=     1
                       cart. coord. in units 2pi/alat
        k(    1) = (   0.0000000   0.0000000   0.0000000), wk =   1.0000000

     Dense  grid:  1457633 G-vectors     FFT dimensions: ( 135, 135, 180)

     Occupations read from input 

      Spin-up

        1.0000   1.0000   1.0000   1.0000   1.0000   1.0000   1.0000   1.0000
        1.0000   1.0000   1.0000   1.0000   1.0000   1.0000   1.0000   1.0000
        1.0000   1.0000   1.0000   1.0000   1.0000   1.0000   1.0000   1.0000
        1.0000   1.0000   1.0000   1.0000   1.0000   1.0000   1.0000   1.0000
        1.0000   1.0000   1.0000   1.0000   1.0000   1.0000   1.0000   1.0000
        1.0000   1.0000   1.0000   1.0000   1.0000   1.0000   1.0000   1.0000
        1.0000   1.0000   1.0000   1.0000   1.0000   1.0000   1.0000   1.0000
        1.0000   1.0000   1.0000   1.0000   1.0000   1.0000   1.0000   1.0000
        1.0000   1.0000   1.0000   1.0000   1.0000   1.0000   1.0000   1.0000
        1.0000   1.0000   1.0000   1.0000   1.0000   1.0000   1.0000   1.0000
        1.0000   1.0000   1.0000   1.0000   1.0000   1.0000   1.0000   1.0000
        1.0000   1.0000   1.0000   1.0000   1.0000   1.0000   1.0000   1.0000
        1.0000   1.0000   1.0000   1.0000   1.0000   1.0000   1.0000   1.0000
        1.0000   1.0000   1.0000   1.0000   1.0000   1.0000   1.0000   1.0000
        1.0000   1.0000   1.0000   1.0000   1.0000   1.0000   1.0000   1.0000
        1.0000   1.0000   1.0000   1.0000   1.0000   1.0000   1.0000   1.0000
        1.0000   1.0000   1.0000   1.0000   1.0000   1.0000   1.0000   1.0000
        1.0000   1.0000   1.0000   1.0000   1.0000   1.0000   0.0000   1.0000
        0.0000   0.0000   0.0000   0.0000   0.0000   0.0000   0.0000

      Spin-down

        1.0000   1.0000   1.0000   1.0000   1.0000   1.0000   1.0000   1.0000
        1.0000   1.0000   1.0000   1.0000   1.0000   1.0000   1.0000   1.0000
        1.0000   1.0000   1.0000   1.0000   1.0000   1.0000   1.0000   1.0000
        1.0000   1.0000   1.0000   1.0000   1.0000   1.0000   1.0000   1.0000
        1.0000   1.0000   1.0000   1.0000   1.0000   1.0000   1.0000   1.0000
        1.0000   1.0000   1.0000   1.0000   1.0000   1.0000   1.0000   1.0000
        1.0000   1.0000   1.0000   1.0000   1.0000   1.0000   1.0000   1.0000
        1.0000   1.0000   1.0000   1.0000   1.0000   1.0000   1.0000   1.0000
        1.0000   1.0000   1.0000   1.0000   1.0000   1.0000   1.0000   1.0000
        1.0000   1.0000   1.0000   1.0000   1.0000   1.0000   1.0000   1.0000
        1.0000   1.0000   1.0000   1.0000   1.0000   1.0000   1.0000   1.0000
        1.0000   1.0000   1.0000   1.0000   1.0000   1.0000   1.0000   1.0000
        1.0000   1.0000   1.0000   1.0000   1.0000   1.0000   1.0000   1.0000
        1.0000   1.0000   1.0000   1.0000   1.0000   1.0000   1.0000   1.0000
        1.0000   1.0000   1.0000   1.0000   1.0000   1.0000   1.0000   1.0000
        1.0000   1.0000   1.0000   1.0000   1.0000   1.0000   1.0000   1.0000
        1.0000   1.0000   1.0000   1.0000   1.0000   1.0000   1.0000   1.0000
        1.0000   1.0000   1.0000   1.0000   1.0000   1.0000   0.0000   0.0000
        0.0000   0.0000   0.0000   0.0000   0.0000   0.0000   0.0000

     Estimated max dynamical RAM per process >     320.92MB

     Estimated total allocated dynamical RAM >   10269.45MB
     Generating pointlists ...
     new r_m :   0.0388 (alat units)  1.1043 (a.u.) for type    1
     new r_m :   0.0362 (alat units)  1.0282 (a.u.) for type    2

     Initial potential from superposition of free atoms
     Check: negative starting charge=(component1):   -0.003141
     Check: negative starting charge=(component2):   -0.001047

     starting charge  284.99101, renormalised to  285.00000

     negative rho (up, down):  3.141E-03 1.047E-03
     Starting wfc are  284 randomized atomic wfcs

     total cpu time spent up to now is        9.2 secs

     per-process dynamical memory:   237.9 Mb

     Self-consistent Calculation

     iteration #  1     ecut=    55.00 Ry     beta=0.70
     Davidson diagonalization with overlap
     ethr =  1.00E-02,  avg # of iterations =  2.0

     negative rho (up, down):  5.127E-04 1.062E-04

     total cpu time spent up to now is       18.8 secs

     total energy              =    -914.88763496 Ry
     Harris-Foulkes estimate   =    -914.83438041 Ry
     estimated scf accuracy    <      16.98552580 Ry

     total magnetization       =     1.00 Bohr mag/cell
     absolute magnetization    =    10.55 Bohr mag/cell

     iteration #  2     ecut=    55.00 Ry     beta=0.70
     Davidson diagonalization with overlap
     ethr =  5.96E-03,  avg # of iterations =  3.0

     negative rho (up, down):  2.409E-04 3.098E-05

     total cpu time spent up to now is       29.2 secs

     total energy              =    -916.71479014 Ry
     Harris-Foulkes estimate   =    -922.01243795 Ry
     estimated scf accuracy    <      11.33366806 Ry

     total magnetization       =     1.00 Bohr mag/cell
     absolute magnetization    =     4.39 Bohr mag/cell

     iteration #  3     ecut=    55.00 Ry     beta=0.70
     Davidson diagonalization with overlap
     ethr =  3.98E-03,  avg # of iterations =  5.5

     negative rho (up, down):  1.275E-04 9.344E-06

     total cpu time spent up to now is       39.0 secs

     total energy              =    -918.45329611 Ry
     Harris-Foulkes estimate   =    -921.23759397 Ry
     estimated scf accuracy    <       8.01973634 Ry

     total magnetization       =     1.00 Bohr mag/cell
     absolute magnetization    =     3.89 Bohr mag/cell

     iteration #  4     ecut=    55.00 Ry     beta=0.70
     Davidson diagonalization with overlap
     ethr =  2.81E-03,  avg # of iterations =  5.0

     negative rho (up, down):  7.103E-06 5.335E-09

     total cpu time spent up to now is       47.2 secs

     total energy              =    -920.26349470 Ry
     Harris-Foulkes estimate   =    -920.37871706 Ry
     estimated scf accuracy    <       0.54668394 Ry

     total magnetization       =     1.00 Bohr mag/cell
     absolute magnetization    =     3.40 Bohr mag/cell

     iteration #  5     ecut=    55.00 Ry     beta=0.70
     Davidson diagonalization with overlap
     ethr =  1.92E-04,  avg # of iterations =  7.5

     total cpu time spent up to now is       58.1 secs

     total energy              =    -920.29933227 Ry
     Harris-Foulkes estimate   =    -920.58670054 Ry
     estimated scf accuracy    <       0.89436227 Ry

     total magnetization       =     1.00 Bohr mag/cell
     absolute magnetization    =     2.12 Bohr mag/cell

     iteration #  6     ecut=    55.00 Ry     beta=0.70
     Davidson diagonalization with overlap
     ethr =  1.92E-04,  avg # of iterations =  5.0

     total cpu time spent up to now is       66.8 secs

     total energy              =    -920.44675615 Ry
     Harris-Foulkes estimate   =    -920.46764173 Ry
     estimated scf accuracy    <       0.07533184 Ry

     total magnetization       =     1.00 Bohr mag/cell
     absolute magnetization    =     1.88 Bohr mag/cell

     iteration #  7     ecut=    55.00 Ry     beta=0.70
     Davidson diagonalization with overlap
     ethr =  2.64E-05,  avg # of iterations =  4.5

     total cpu time spent up to now is       76.2 secs

     total energy              =    -920.45465619 Ry
     Harris-Foulkes estimate   =    -920.45743206 Ry
     estimated scf accuracy    <       0.01779420 Ry

     total magnetization       =     1.00 Bohr mag/cell
     absolute magnetization    =     1.54 Bohr mag/cell

     iteration #  8     ecut=    55.00 Ry     beta=0.70
     Davidson diagonalization with overlap
     ethr =  6.24E-06,  avg # of iterations = 13.0

     total cpu time spent up to now is       88.2 secs

     total energy              =    -920.45807304 Ry
     Harris-Foulkes estimate   =    -920.45827510 Ry
     estimated scf accuracy    <       0.00257275 Ry

     total magnetization       =     1.00 Bohr mag/cell
     absolute magnetization    =     1.22 Bohr mag/cell

     iteration #  9     ecut=    55.00 Ry     beta=0.70
     Davidson diagonalization with overlap
     ethr =  9.03E-07,  avg # of iterations =  6.5

     total cpu time spent up to now is       98.1 secs

     total energy              =    -920.45856723 Ry
     Harris-Foulkes estimate   =    -920.45861034 Ry
     estimated scf accuracy    <       0.00067342 Ry

     total magnetization       =     1.00 Bohr mag/cell
     absolute magnetization    =     1.17 Bohr mag/cell

     iteration # 10     ecut=    55.00 Ry     beta=0.70
     Davidson diagonalization with overlap
     ethr =  2.36E-07,  avg # of iterations =  4.0

     total cpu time spent up to now is      108.3 secs

     total energy              =    -920.45878086 Ry
     Harris-Foulkes estimate   =    -920.45874266 Ry
     estimated scf accuracy    <       0.00010143 Ry

     total magnetization       =     1.00 Bohr mag/cell
     absolute magnetization    =     1.15 Bohr mag/cell

     iteration # 11     ecut=    55.00 Ry     beta=0.70
     Davidson diagonalization with overlap
     ethr =  3.56E-08,  avg # of iterations =  4.5

     total cpu time spent up to now is      118.0 secs

     total energy              =    -920.45882231 Ry
     Harris-Foulkes estimate   =    -920.45880802 Ry
     estimated scf accuracy    <       0.00002731 Ry

     total magnetization       =     1.00 Bohr mag/cell
     absolute magnetization    =     1.15 Bohr mag/cell

     iteration # 12     ecut=    55.00 Ry     beta=0.70
     Davidson diagonalization with overlap
     ethr =  9.58E-09,  avg # of iterations =  3.5

     total cpu time spent up to now is      128.6 secs

     total energy              =    -920.45883652 Ry
     Harris-Foulkes estimate   =    -920.45883298 Ry
     estimated scf accuracy    <       0.00000774 Ry

     total magnetization       =     1.00 Bohr mag/cell
     absolute magnetization    =     1.16 Bohr mag/cell

     iteration # 13     ecut=    55.00 Ry     beta=0.70
     Davidson diagonalization with overlap
     ethr =  2.72E-09,  avg # of iterations =  4.0

     total cpu time spent up to now is      140.0 secs

     total energy              =    -920.45884165 Ry
     Harris-Foulkes estimate   =    -920.45884236 Ry
     estimated scf accuracy    <       0.00000304 Ry

     total magnetization       =     1.00 Bohr mag/cell
     absolute magnetization    =     1.18 Bohr mag/cell

     iteration # 14     ecut=    55.00 Ry     beta=0.70
     Davidson diagonalization with overlap
     ethr =  1.07E-09,  avg # of iterations =  3.5
 
     Magnetic moment per site:
     atom:    1    charge:    0.8063    magn:    0.0004    constr:    0.0000
     atom:    2    charge:    0.8196    magn:    0.0013    constr:    0.0000
     atom:    3    charge:    0.8299    magn:    0.0000    constr:    0.0000
     atom:    4    charge:    0.8270    magn:    0.0005    constr:    0.0000
     atom:    5    charge:    0.8229    magn:    0.0002    constr:    0.0000
     atom:    6    charge:    0.8166    magn:    0.0017    constr:    0.0000
     atom:    7    charge:    0.8138    magn:    0.0006    constr:    0.0000
     atom:    8    charge:    0.7856    magn:    0.0025    constr:    0.0000
     atom:    9    charge:    0.8347    magn:    0.0065    constr:    0.0000
     atom:   10    charge:    0.8354    magn:    0.0042    constr:    0.0000
     atom:   11    charge:    0.8280    magn:    0.0015    constr:    0.0000
     atom:   12    charge:    0.8232    magn:    0.0002    constr:    0.0000
     atom:   13    charge:    0.8205    magn:    0.0003    constr:    0.0000
     atom:   14    charge:    0.8030    magn:    0.0052    constr:    0.0000
     atom:   15    charge:    0.7311    magn:    0.0681    constr:    0.0000
     atom:   16    charge:    0.8594    magn:    0.0177    constr:    0.0000
     atom:   17    charge:    0.8360    magn:    0.0042    constr:    0.0000
     atom:   18    charge:    0.8269    magn:    0.0005    constr:    0.0000
     atom:   19    charge:    0.8329    magn:    0.0003    constr:    0.0000
     atom:   20    charge:    0.8560    magn:    0.0024    constr:    0.0000
     atom:   21    charge:    2.3014    magn:    0.0234    constr:    0.0000
     atom:   22    charge:    0.7309    magn:    0.0680    constr:    0.0000
     atom:   23    charge:    0.8348    magn:    0.0065    constr:    0.0000
     atom:   24    charge:    0.8308    magn:    0.0000    constr:    0.0000
     atom:   25    charge:    0.8285    magn:   -0.0000    constr:    0.0000
     atom:   26    charge:    0.8428    magn:    0.0007    constr:    0.0000
     atom:   27    charge:    0.8555    magn:    0.0024    constr:    0.0000
     atom:   28    charge:    0.8032    magn:    0.0052    constr:    0.0000
     atom:   29    charge:    0.7863    magn:    0.0025    constr:    0.0000
     atom:   30    charge:    0.8191    magn:    0.0013    constr:    0.0000
     atom:   31    charge:    0.8204    magn:    0.0024    constr:    0.0000
     atom:   32    charge:    0.8285    magn:   -0.0000    constr:    0.0000
     atom:   33    charge:    0.8327    magn:    0.0003    constr:    0.0000
     atom:   34    charge:    0.8197    magn:    0.0003    constr:    0.0000
     atom:   35    charge:    0.8141    magn:    0.0006    constr:    0.0000
     atom:   36    charge:    0.8053    magn:    0.0004    constr:    0.0000
     atom:   37    charge:    2.3981    magn:   -0.0007    constr:    0.0000
     atom:   38    charge:    2.3993    magn:    0.0020    constr:    0.0000
     atom:   39    charge:    2.4050    magn:    0.0001    constr:    0.0000
     atom:   40    charge:    2.3976    magn:   -0.0004    constr:    0.0000
     atom:   41    charge:    2.3909    magn:   -0.0004    constr:    0.0000
     atom:   42    charge:    2.3888    magn:   -0.0006    constr:    0.0000
     atom:   43    charge:    2.3826    magn:   -0.0009    constr:    0.0000
     atom:   44    charge:    2.3962    magn:    0.0020    constr:    0.0000
     atom:   45    charge:    2.4065    magn:   -0.0020    constr:    0.0000
     atom:   46    charge:    2.4065    magn:   -0.0009    constr:    0.0000
     atom:   47    charge:    2.4008    magn:   -0.0002    constr:    0.0000
     atom:   48    charge:    2.3915    magn:   -0.0004    constr:    0.0000
     atom:   49    charge:    2.3841    magn:   -0.0016    constr:    0.0000
     atom:   50    charge:    2.3447    magn:   -0.0028    constr:    0.0000
     atom:   51    charge:    2.4112    magn:   -0.0071    constr:    0.0000
     atom:   52    charge:    2.4206    magn:   -0.0041    constr:    0.0000
     atom:   53    charge:    2.4086    magn:   -0.0009    constr:    0.0000
     atom:   54    charge:    2.3969    magn:   -0.0004    constr:    0.0000
     atom:   55    charge:    2.4099    magn:    0.0005    constr:    0.0000
     atom:   56    charge:    2.3715    magn:   -0.0002    constr:    0.0000
     atom:   57    charge:    2.4123    magn:   -0.0071    constr:    0.0000
     atom:   58    charge:    2.4047    magn:   -0.0019    constr:    0.0000
     atom:   59    charge:    2.4047    magn:    0.0001    constr:    0.0000
     atom:   60    charge:    2.4070    magn:    0.0003    constr:    0.0000
     atom:   61    charge:    2.4212    magn:    0.0009    constr:    0.0000
     atom:   62    charge:    2.3731    magn:   -0.0002    constr:    0.0000
     atom:   63    charge:    2.3438    magn:   -0.0028    constr:    0.0000
     atom:   64    charge:    2.3974    magn:    0.0020    constr:    0.0000
     atom:   65    charge:    2.4027    magn:    0.0020    constr:    0.0000
     atom:   66    charge:    2.4029    magn:   -0.0002    constr:    0.0000
     atom:   67    charge:    2.4087    magn:    0.0003    constr:    0.0000
     atom:   68    charge:    2.4075    magn:    0.0005    constr:    0.0000
     atom:   69    charge:    2.3826    magn:   -0.0016    constr:    0.0000
     atom:   70    charge:    2.3823    magn:   -0.0009    constr:    0.0000
     atom:   71    charge:    2.3993    magn:   -0.0007    constr:    0.0000

     total cpu time spent up to now is      148.7 secs

     End of self-consistent calculation

 ------ SPIN UP ------------


          k = 0.0000 0.0000 0.0000 (182351 PWs)   bands (ev):

   -26.2253 -22.1423 -21.8866 -21.4394 -21.3090 -21.2262 -21.0876 -20.9499
   -20.6315 -20.5226 -20.3586 -20.1742 -20.1614 -20.1128 -19.9953 -19.8451
   -19.7079 -19.6800 -19.5294 -19.4106 -19.2084 -19.0100 -18.9653 -18.9044
   -18.8782 -18.8137 -18.7287 -18.6342 -18.6318 -18.5889 -18.5295 -18.4022
   -18.3525 -18.1592 -17.7590 -16.3431 -13.9222 -13.6309 -13.1413 -12.8884
   -12.7130 -12.4927 -12.3310 -12.3137 -12.2828 -12.1592 -12.1264 -12.0401
   -12.0372 -12.0204 -11.8715 -11.8599 -11.6062 -11.4451 -11.3483 -11.2258
   -11.0743 -11.0235 -10.8636 -10.8546 -10.8221 -10.4969 -10.2955 -10.0395
   -10.0241  -9.8356  -9.8217  -9.6746  -9.6432  -9.5755  -9.5514  -9.4644
    -9.4027  -9.3743  -9.3067  -9.2941  -9.2862  -9.2499  -8.9585  -8.9425
    -8.8804  -8.8293  -8.7866  -8.6060  -8.4923  -8.4490  -8.4432  -8.3515
    -8.2921  -8.2022  -8.1214  -8.0949  -8.0632  -8.0008  -7.9850  -7.9063
    -7.8328  -7.7783  -7.7267  -7.6880  -7.6476  -7.5281  -7.4950  -7.4820
    -7.4079  -7.3527  -7.2081  -7.2062  -7.1824  -7.1415  -6.9342  -6.9049
    -6.8053  -6.7862  -6.7364  -6.6111  -6.6043  -6.5241  -6.3473  -6.3386
    -6.1613  -6.1513  -6.1323  -5.9206  -5.6312  -5.5881  -5.5320  -5.4594
    -5.4092  -5.3080  -5.2526  -5.2419  -5.1804  -5.0795  -5.0296  -4.9628
    -4.9598  -4.8381  -4.6548  -4.2807  -3.9987  -3.6948  -2.6238  -0.3453
     0.3141   0.5177   0.5192   0.5927   0.6021   0.8830   0.9991

 ------ SPIN DOWN ----------


          k = 0.0000 0.0000 0.0000 (182351 PWs)   bands (ev):

   -26.1949 -22.1376 -21.8838 -21.4370 -21.3074 -21.2236 -21.0842 -20.9468
   -20.6222 -20.5203 -20.3563 -20.1714 -20.1566 -20.1110 -19.9933 -19.8418
   -19.7018 -19.6755 -19.5213 -19.4051 -19.2043 -19.0089 -18.9555 -18.9030
   -18.8774 -18.8128 -18.7266 -18.6312 -18.6289 -18.5881 -18.5229 -18.3963
   -18.3487 -18.1561 -17.7542 -16.3208 -13.9120 -13.6248 -13.1387 -12.8814
   -12.7037 -12.4888 -12.3275 -12.3089 -12.2772 -12.1571 -12.1092 -12.0355
   -12.0253 -12.0172 -11.8655 -11.8468 -11.5943 -11.4376 -11.3170 -11.2190
   -11.0596 -11.0177 -10.8335 -10.8081 -10.7942 -10.4796 -10.2619 -10.0314
   -10.0213  -9.8330  -9.8156  -9.6661  -9.6398  -9.5679  -9.5497  -9.4502
    -9.3974  -9.3623  -9.3018  -9.2825  -9.2728  -9.2314  -8.9421  -8.9329
    -8.8723  -8.8193  -8.7628  -8.5958  -8.4755  -8.4437  -8.4160  -8.3398
    -8.2821  -8.1996  -8.1163  -8.0902  -8.0618  -7.9991  -7.9532  -7.9012
    -7.7839  -7.7769  -7.7160  -7.6859  -7.6432  -7.5246  -7.4822  -7.4794
    -7.4036  -7.3399  -7.1955  -7.1950  -7.1558  -7.1320  -6.9205  -6.8959
    -6.7982  -6.7719  -6.7227  -6.6026  -6.5846  -6.4871  -6.3466  -6.2696
    -6.1550  -6.1296  -6.1121  -5.9089  -5.5841  -5.5762  -5.5077  -5.4341
    -5.4002  -5.3032  -5.2475  -5.2363  -5.1747  -5.0704  -5.0124  -4.9464
    -4.9376  -4.8244  -4.6018  -4.2483  -3.9713  -3.4561  -2.5019   0.3466
     0.4439   0.5385   0.5433   0.6388   0.6398   0.9474   1.0248

     highest occupied, lowest unoccupied level (ev):    -3.4561   -2.6238

!    total energy              =    -920.45884253 Ry
     Harris-Foulkes estimate   =    -920.45884245 Ry
     estimated scf accuracy    <       0.00000060 Ry

     The total energy is the sum of the following terms:

     one-electron contribution =   -7782.33869042 Ry
     hartree contribution      =    3943.18060463 Ry
     xc contribution           =    -262.21221163 Ry
     ewald contribution        =    3180.91145490 Ry

     total magnetization       =     1.00 Bohr mag/cell
     absolute magnetization    =     1.18 Bohr mag/cell

     convergence has been achieved in  14 iterations

     Writing output data file BN.save
 
     init_run     :      7.81s CPU      8.28s WALL (       1 calls)
     electrons    :    138.29s CPU    139.97s WALL (       1 calls)

     Called by init_run:
     wfcinit      :      4.36s CPU      4.46s WALL (       1 calls)
     potinit      :      1.07s CPU      1.12s WALL (       1 calls)

     Called by electrons:
     c_bands      :    115.40s CPU    116.55s WALL (      14 calls)
     sum_band     :     14.66s CPU     14.81s WALL (      14 calls)
     v_of_rho     :      5.82s CPU      6.06s WALL (      15 calls)
     mix_rho      :      1.93s CPU      2.04s WALL (      14 calls)

     Called by c_bands:
     init_us_2    :      1.29s CPU      1.32s WALL (      29 calls)
     cegterg      :    108.85s CPU    109.98s WALL (      14 calls)

     Called by sum_band:

     Called by *egterg:
     h_psi        :     82.62s CPU     82.74s WALL (      91 calls)
     g_psi        :      0.30s CPU      0.30s WALL (      76 calls)
     cdiaghg      :      4.56s CPU      4.79s WALL (      90 calls)

     Called by h_psi:
     h_psi:pot    :     81.80s CPU     81.93s WALL (      91 calls)
     h_psi:calbec :     11.17s CPU     11.18s WALL (      91 calls)
     vloc_psi     :     59.00s CPU     59.12s WALL (      91 calls)
     add_vuspsi   :     11.63s CPU     11.63s WALL (      91 calls)

     General routines
     calbec       :     11.17s CPU     11.18s WALL (      91 calls)
     fft          :      2.37s CPU      2.74s WALL (     312 calls)
     fftw         :     52.28s CPU     52.37s WALL (   14528 calls)
 
     Parallel routines
     fft_scatter  :     16.66s CPU     17.01s WALL (   14840 calls)
 
     PWSCF        :  2m30.05s CPU     2m34.51s WALL

 
   This run was terminated on:  22:15:15  28Apr2020            

=------------------------------------------------------------------------------=
   JOB DONE.
=------------------------------------------------------------------------------=
