
     Program PWSCF v.6.1 (svn rev. 13369) starts on 12May2020 at 10:29:16 

     This program is part of the open-source Quantum ESPRESSO suite
     for quantum simulation of materials; please cite
         "P. Giannozzi et al., J. Phys.:Condens. Matter 21 395502 (2009);
          URL http://www.quantum-espresso.org", 
     in publications or presentations arising from this work. More details at
     http://www.quantum-espresso.org/quote

     Parallel version (MPI), running on    96 processors
     K-points division:     npool     =       6
     R & G space division:  proc/nbgrp/npool/nimage =      16
     Reading input from scf.in
Warning: card &IONS ignored
Warning: card / ignored

     Current dimensions of program PWSCF are:
     Max number of different atomic species (ntypx) = 10
     Max number of k-points (npk) =  40000
     Max angular momentum in pseudopotentials (lmaxx) =  3

     Subspace diagonalization in iterative solution of the eigenvalue problem:
     a serial algorithm will be used

 
     Parallelization info
     --------------------
     sticks:   dense  smooth     PW     G-vecs:    dense   smooth      PW
     Min         252     252     67                12125    12125    1669
     Max         254     254     68                12129    12129    1672
     Sum        4049    4049   1085               194039   194039   26745
 


     bravais-lattice index     =            1
     lattice parameter (alat)  =      13.4862  a.u.
     unit-cell volume          =    2452.8358 (a.u.)^3
     number of atoms/cell      =           63
     number of atomic types    =            2
     number of electrons       =       254.00
     number of Kohn-Sham states=          152
     kinetic-energy cutoff     =      70.0000  Ry
     charge density cutoff     =     280.0000  Ry
     convergence threshold     =      1.0E-06
     mixing beta               =       0.5000
     number of iterations used =            8  plain     mixing
     Exchange-correlation      = PBE ( 1  4  3  4 0 0)

     celldm(1)=  13.486197  celldm(2)=   0.000000  celldm(3)=   0.000000
     celldm(4)=   0.000000  celldm(5)=   0.000000  celldm(6)=   0.000000

     crystal axes: (cart. coord. in units of alat)
               a(1) = (   1.000000   0.000000   0.000000 )  
               a(2) = (   0.000000   1.000000   0.000000 )  
               a(3) = (   0.000000   0.000000   1.000000 )  

     reciprocal axes: (cart. coord. in units 2 pi/alat)
               b(1) = (  1.000000  0.000000  0.000000 )  
               b(2) = (  0.000000  1.000000  0.000000 )  
               b(3) = (  0.000000  0.000000  1.000000 )  


     PseudoPot. # 1 for C  read from file:
     /home/tjsmart/Pseudo/C_ONCV_PBE-1.0.upf
     MD5 check sum: 72b63e32b2fd29504de26a4901699f60
     Pseudo is Norm-conserving, Zval =  4.0
     Generated using ONCVPSP code by D. R. Hamann
     Using radial grid of 1248 points,  4 beta functions with: 
                l(1) =   0
                l(2) =   0
                l(3) =   1
                l(4) =   1

     PseudoPot. # 2 for N  read from file:
     /home/tjsmart/Pseudo/N_ONCV_PBE-1.0.upf
     MD5 check sum: 09890da6b2972017450f7114a6086fad
     Pseudo is Norm-conserving, Zval =  5.0
     Generated using ONCVPSP code by D. R. Hamann
     Using radial grid of 1058 points,  4 beta functions with: 
                l(1) =   0
                l(2) =   0
                l(3) =   1
                l(4) =   1

     atomic species   valence    mass     pseudopotential
        C              4.00    12.01110     C ( 1.00)
        N              5.00    14.00670     N ( 1.00)

     Starting magnetic structure 
     atomic species   magnetization
        C            0.500
        N            0.500

      6 Sym. Ops. (no inversion) found


                                    s                        frac. trans.

      isym =  1     identity                                     

 cryst.   s( 1) = (     1          0          0      )
                  (     0          1          0      )
                  (     0          0          1      )

 cart.    s( 1) = (  1.0000000  0.0000000  0.0000000 )
                  (  0.0000000  1.0000000  0.0000000 )
                  (  0.0000000  0.0000000  1.0000000 )


      isym =  2     120 deg rotation - cart. axis [-1,-1,-1]     

 cryst.   s( 2) = (     0          0          1      )
                  (     1          0          0      )
                  (     0          1          0      )

 cart.    s( 2) = (  0.0000000  1.0000000  0.0000000 )
                  (  0.0000000  0.0000000  1.0000000 )
                  (  1.0000000  0.0000000  0.0000000 )


      isym =  3     120 deg rotation - cart. axis [1,1,1]        

 cryst.   s( 3) = (     0          1          0      )
                  (     0          0          1      )
                  (     1          0          0      )

 cart.    s( 3) = (  0.0000000  0.0000000  1.0000000 )
                  (  1.0000000  0.0000000  0.0000000 )
                  (  0.0000000  1.0000000  0.0000000 )


      isym =  4     inv. 180 deg rotation - cart. axis [1,-1,0]  

 cryst.   s( 4) = (     0          1          0      )
                  (     1          0          0      )
                  (     0          0          1      )

 cart.    s( 4) = (  0.0000000  1.0000000  0.0000000 )
                  (  1.0000000  0.0000000  0.0000000 )
                  (  0.0000000  0.0000000  1.0000000 )


      isym =  5     inv. 180 deg rotation - cart. axis [-1,0,1]  

 cryst.   s( 5) = (     0          0          1      )
                  (     0          1          0      )
                  (     1          0          0      )

 cart.    s( 5) = (  0.0000000  0.0000000  1.0000000 )
                  (  0.0000000  1.0000000  0.0000000 )
                  (  1.0000000  0.0000000  0.0000000 )


      isym =  6     inv. 180 deg rotation - cart. axis [0,1,-1]  

 cryst.   s( 6) = (     1          0          0      )
                  (     0          0          1      )
                  (     0          1          0      )

 cart.    s( 6) = (  1.0000000  0.0000000  0.0000000 )
                  (  0.0000000  0.0000000  1.0000000 )
                  (  0.0000000  1.0000000  0.0000000 )


     point group C_3v (3m)  
     there are  3 classes
     the character table:

       E     2C3   3s_v 
A_1    1.00  1.00  1.00
A_2    1.00  1.00 -1.00
E      2.00 -1.00  0.00

     the symmetry operations in each class and the name of the first element:

     E        1
          identity                                               
     2C3      2    3
          120 deg rotation - cart. axis [-1,-1,-1]               
     3s_v     4    5    6
          inv. 180 deg rotation - cart. axis [1,-1,0]            

   Cartesian axes

     site n.     atom                  positions (alat units)
         1           C   tau(   1) = (   0.3757341   0.3757341   0.8736967  )
         2           C   tau(   2) = (   0.5000407   0.0001753   0.0001753  )
         3           C   tau(   3) = (   0.5000590  -0.0000497   0.5000590  )
         4           C   tau(   4) = (   0.0001753   0.5000407   0.0001753  )
         5           C   tau(   5) = (  -0.0000497   0.5000590   0.5000590  )
         6           C   tau(   6) = (  -0.0001110  -0.0001110  -0.0001110  )
         7           C   tau(   7) = (   0.0001753   0.0001753   0.5000407  )
         8           C   tau(   8) = (   0.2502085   0.2502085  -0.0012474  )
         9           C   tau(   9) = (   0.2505863   0.2505863   0.4946732  )
        10           C   tau(  10) = (   0.2504219   0.7490213   0.0010118  )
        11           C   tau(  11) = (   0.2527209   0.7477141   0.5016078  )
        12           C   tau(  12) = (   0.7490213   0.2504219   0.0010118  )
        13           C   tau(  13) = (   0.7477141   0.2527209   0.5016078  )
        14           C   tau(  14) = (   0.7496590   0.7496590  -0.0001708  )
        15           C   tau(  15) = (   0.5000590   0.5000590  -0.0000497  )
        16           C   tau(  16) = (   0.7491688   0.7491688   0.4988075  )
        17           C   tau(  17) = (   0.5016078   0.2527209   0.7477141  )
        18           C   tau(  18) = (   0.5016078   0.7477141   0.2527209  )
        19           C   tau(  19) = (   0.4988075   0.7491688   0.7491688  )
        20           C   tau(  20) = (  -0.0012474   0.2502085   0.2502085  )
        21           C   tau(  21) = (   0.0010118   0.2504219   0.7490213  )
        22           C   tau(  22) = (   0.0010118   0.7490213   0.2504219  )
        23           C   tau(  23) = (  -0.0001708   0.7496590   0.7496590  )
        24           C   tau(  24) = (   0.2505863   0.4946732   0.2505863  )
        25           C   tau(  25) = (   0.2527209   0.5016078   0.7477141  )
        26           C   tau(  26) = (   0.2502085  -0.0012474   0.2502085  )
        27           C   tau(  27) = (   0.2504219   0.0010118   0.7490213  )
        28           C   tau(  28) = (   0.7477141   0.5016078   0.2527209  )
        29           C   tau(  29) = (   0.7491688   0.4988075   0.7491688  )
        30           C   tau(  30) = (   0.4946732   0.2505863   0.2505863  )
        31           C   tau(  31) = (   0.7490213   0.0010118   0.2504219  )
        32           C   tau(  32) = (   0.6247024   0.8744892   0.6247024  )
        33           C   tau(  33) = (   0.6346219   0.3677312   0.6346219  )
        34           C   tau(  34) = (   0.3759073   0.8762008   0.8762008  )
        35           C   tau(  35) = (   0.3757341   0.8736967   0.3757341  )
        36           C   tau(  36) = (   0.8762008   0.3759073   0.8762008  )
        37           C   tau(  37) = (   0.8736967   0.3757341   0.3757341  )
        38           C   tau(  38) = (   0.8747237   0.8747237   0.8747237  )
        39           C   tau(  39) = (   0.8762008   0.8762008   0.3759073  )
        40           C   tau(  40) = (   0.1253844   0.1253844   0.8742341  )
        41           C   tau(  41) = (   0.1238062   0.1238062   0.3748656  )
        42           C   tau(  42) = (   0.1244132   0.6245662   0.8758264  )
        43           C   tau(  43) = (   0.1271299   0.6228927   0.3763047  )
        44           C   tau(  44) = (   0.6245662   0.1244132   0.8758264  )
        45           C   tau(  45) = (   0.6228927   0.1271299   0.3763047  )
        46           C   tau(  46) = (   0.6245662   0.8758264   0.1244132  )
        47           C   tau(  47) = (   0.6247024   0.6247024   0.8744892  )
        48           C   tau(  48) = (   0.3748656   0.1238062   0.1238062  )
        49           C   tau(  49) = (   0.3763047   0.1271299   0.6228927  )
        50           C   tau(  50) = (   0.3763047   0.6228927   0.1271299  )
        51           C   tau(  51) = (   0.3677312   0.6346219   0.6346219  )
        52           C   tau(  52) = (   0.8742341   0.1253844   0.1253844  )
        53           C   tau(  53) = (   0.8758264   0.1244132   0.6245662  )
        54           C   tau(  54) = (   0.8758264   0.6245662   0.1244132  )
        55           C   tau(  55) = (   0.8744892   0.6247024   0.6247024  )
        56           C   tau(  56) = (   0.1238062   0.3748656   0.1238062  )
        57           C   tau(  57) = (   0.1271299   0.3763047   0.6228927  )
        58           C   tau(  58) = (   0.1253844   0.8742341   0.1253844  )
        59           C   tau(  59) = (   0.1244132   0.8758264   0.6245662  )
        60           C   tau(  60) = (   0.6228927   0.3763047   0.1271299  )
        61           C   tau(  61) = (   0.6346219   0.6346219   0.3677312  )
        62           C   tau(  62) = (   0.7496590  -0.0001708   0.7496590  )
        63           N   tau(  63) = (   0.3645343   0.3645343   0.3645343  )

   Crystallographic axes

     site n.     atom                  positions (cryst. coord.)
         1           C   tau(   1) = (  0.3757341  0.3757341  0.8736967  )
         2           C   tau(   2) = (  0.5000407  0.0001753  0.0001753  )
         3           C   tau(   3) = (  0.5000590 -0.0000497  0.5000590  )
         4           C   tau(   4) = (  0.0001753  0.5000407  0.0001753  )
         5           C   tau(   5) = ( -0.0000497  0.5000590  0.5000590  )
         6           C   tau(   6) = ( -0.0001110 -0.0001110 -0.0001110  )
         7           C   tau(   7) = (  0.0001753  0.0001753  0.5000407  )
         8           C   tau(   8) = (  0.2502085  0.2502085 -0.0012474  )
         9           C   tau(   9) = (  0.2505863  0.2505863  0.4946732  )
        10           C   tau(  10) = (  0.2504219  0.7490213  0.0010118  )
        11           C   tau(  11) = (  0.2527209  0.7477141  0.5016078  )
        12           C   tau(  12) = (  0.7490213  0.2504219  0.0010118  )
        13           C   tau(  13) = (  0.7477141  0.2527209  0.5016078  )
        14           C   tau(  14) = (  0.7496590  0.7496590 -0.0001708  )
        15           C   tau(  15) = (  0.5000590  0.5000590 -0.0000497  )
        16           C   tau(  16) = (  0.7491688  0.7491688  0.4988075  )
        17           C   tau(  17) = (  0.5016078  0.2527209  0.7477141  )
        18           C   tau(  18) = (  0.5016078  0.7477141  0.2527209  )
        19           C   tau(  19) = (  0.4988075  0.7491688  0.7491688  )
        20           C   tau(  20) = ( -0.0012474  0.2502085  0.2502085  )
        21           C   tau(  21) = (  0.0010118  0.2504219  0.7490213  )
        22           C   tau(  22) = (  0.0010118  0.7490213  0.2504219  )
        23           C   tau(  23) = ( -0.0001708  0.7496590  0.7496590  )
        24           C   tau(  24) = (  0.2505863  0.4946732  0.2505863  )
        25           C   tau(  25) = (  0.2527209  0.5016078  0.7477141  )
        26           C   tau(  26) = (  0.2502085 -0.0012474  0.2502085  )
        27           C   tau(  27) = (  0.2504219  0.0010118  0.7490213  )
        28           C   tau(  28) = (  0.7477141  0.5016078  0.2527209  )
        29           C   tau(  29) = (  0.7491688  0.4988075  0.7491688  )
        30           C   tau(  30) = (  0.4946732  0.2505863  0.2505863  )
        31           C   tau(  31) = (  0.7490213  0.0010118  0.2504219  )
        32           C   tau(  32) = (  0.6247024  0.8744892  0.6247024  )
        33           C   tau(  33) = (  0.6346219  0.3677312  0.6346219  )
        34           C   tau(  34) = (  0.3759073  0.8762008  0.8762008  )
        35           C   tau(  35) = (  0.3757341  0.8736967  0.3757341  )
        36           C   tau(  36) = (  0.8762008  0.3759073  0.8762008  )
        37           C   tau(  37) = (  0.8736967  0.3757341  0.3757341  )
        38           C   tau(  38) = (  0.8747237  0.8747237  0.8747237  )
        39           C   tau(  39) = (  0.8762008  0.8762008  0.3759073  )
        40           C   tau(  40) = (  0.1253844  0.1253844  0.8742341  )
        41           C   tau(  41) = (  0.1238062  0.1238062  0.3748656  )
        42           C   tau(  42) = (  0.1244132  0.6245662  0.8758264  )
        43           C   tau(  43) = (  0.1271299  0.6228927  0.3763047  )
        44           C   tau(  44) = (  0.6245662  0.1244132  0.8758264  )
        45           C   tau(  45) = (  0.6228927  0.1271299  0.3763047  )
        46           C   tau(  46) = (  0.6245662  0.8758264  0.1244132  )
        47           C   tau(  47) = (  0.6247024  0.6247024  0.8744892  )
        48           C   tau(  48) = (  0.3748656  0.1238062  0.1238062  )
        49           C   tau(  49) = (  0.3763047  0.1271299  0.6228927  )
        50           C   tau(  50) = (  0.3763047  0.6228927  0.1271299  )
        51           C   tau(  51) = (  0.3677312  0.6346219  0.6346219  )
        52           C   tau(  52) = (  0.8742341  0.1253844  0.1253844  )
        53           C   tau(  53) = (  0.8758264  0.1244132  0.6245662  )
        54           C   tau(  54) = (  0.8758264  0.6245662  0.1244132  )
        55           C   tau(  55) = (  0.8744892  0.6247024  0.6247024  )
        56           C   tau(  56) = (  0.1238062  0.3748656  0.1238062  )
        57           C   tau(  57) = (  0.1271299  0.3763047  0.6228927  )
        58           C   tau(  58) = (  0.1253844  0.8742341  0.1253844  )
        59           C   tau(  59) = (  0.1244132  0.8758264  0.6245662  )
        60           C   tau(  60) = (  0.6228927  0.3763047  0.1271299  )
        61           C   tau(  61) = (  0.6346219  0.6346219  0.3677312  )
        62           C   tau(  62) = (  0.7496590 -0.0001708  0.7496590  )
        63           N   tau(  63) = (  0.3645343  0.3645343  0.3645343  )

     number of k points=     6
                       cart. coord. in units 2pi/alat
        k(    1) = (   0.0000000   0.0000000   0.0000000), wk =   0.0370370
        k(    2) = (   0.0000000   0.0000000   0.3333333), wk =   0.2222222
        k(    3) = (   0.0000000   0.3333333   0.3333333), wk =   0.2222222
        k(    4) = (   0.3333333   0.3333333   0.3333333), wk =   0.0740741
        k(    5) = (  -0.3333333   0.0000000   0.3333333), wk =   0.2222222
        k(    6) = (   0.3333333  -0.3333333   0.3333333), wk =   0.2222222

                       cryst. coord.
        k(    1) = (   0.0000000   0.0000000   0.0000000), wk =   0.0370370
        k(    2) = (   0.0000000   0.0000000   0.3333333), wk =   0.2222222
        k(    3) = (   0.0000000   0.3333333   0.3333333), wk =   0.2222222
        k(    4) = (   0.3333333   0.3333333   0.3333333), wk =   0.0740741
        k(    5) = (  -0.3333333   0.0000000   0.3333333), wk =   0.2222222
        k(    6) = (   0.3333333  -0.3333333   0.3333333), wk =   0.2222222

     Dense  grid:   194039 G-vectors     FFT dimensions: (  72,  72,  72)

     Occupations read from input 

      Spin-up

        1.0000   1.0000   1.0000   1.0000   1.0000   1.0000   1.0000   1.0000
        1.0000   1.0000   1.0000   1.0000   1.0000   1.0000   1.0000   1.0000
        1.0000   1.0000   1.0000   1.0000   1.0000   1.0000   1.0000   1.0000
        1.0000   1.0000   1.0000   1.0000   1.0000   1.0000   1.0000   1.0000
        1.0000   1.0000   1.0000   1.0000   1.0000   1.0000   1.0000   1.0000
        1.0000   1.0000   1.0000   1.0000   1.0000   1.0000   1.0000   1.0000
        1.0000   1.0000   1.0000   1.0000   1.0000   1.0000   1.0000   1.0000
        1.0000   1.0000   1.0000   1.0000   1.0000   1.0000   1.0000   1.0000
        1.0000   1.0000   1.0000   1.0000   1.0000   1.0000   1.0000   1.0000
        1.0000   1.0000   1.0000   1.0000   1.0000   1.0000   1.0000   1.0000
        1.0000   1.0000   1.0000   1.0000   1.0000   1.0000   1.0000   1.0000
        1.0000   1.0000   1.0000   1.0000   1.0000   1.0000   1.0000   1.0000
        1.0000   1.0000   1.0000   1.0000   1.0000   1.0000   1.0000   1.0000
        1.0000   1.0000   1.0000   1.0000   1.0000   1.0000   1.0000   1.0000
        1.0000   1.0000   1.0000   1.0000   1.0000   1.0000   1.0000   1.0000
        1.0000   1.0000   1.0000   1.0000   1.0000   1.0000   1.0000   1.0000
        0.0000   0.0000   0.0000   0.0000   0.0000   0.0000   0.0000   0.0000
        0.0000   0.0000   0.0000   0.0000   0.0000   0.0000   0.0000   0.0000
        0.0000   0.0000   0.0000   0.0000   0.0000   0.0000   0.0000   0.0000

      Spin-down

        1.0000   1.0000   1.0000   1.0000   1.0000   1.0000   1.0000   1.0000
        1.0000   1.0000   1.0000   1.0000   1.0000   1.0000   1.0000   1.0000
        1.0000   1.0000   1.0000   1.0000   1.0000   1.0000   1.0000   1.0000
        1.0000   1.0000   1.0000   1.0000   1.0000   1.0000   1.0000   1.0000
        1.0000   1.0000   1.0000   1.0000   1.0000   1.0000   1.0000   1.0000
        1.0000   1.0000   1.0000   1.0000   1.0000   1.0000   1.0000   1.0000
        1.0000   1.0000   1.0000   1.0000   1.0000   1.0000   1.0000   1.0000
        1.0000   1.0000   1.0000   1.0000   1.0000   1.0000   1.0000   1.0000
        1.0000   1.0000   1.0000   1.0000   1.0000   1.0000   1.0000   1.0000
        1.0000   1.0000   1.0000   1.0000   1.0000   1.0000   1.0000   1.0000
        1.0000   1.0000   1.0000   1.0000   1.0000   1.0000   1.0000   1.0000
        1.0000   1.0000   1.0000   1.0000   1.0000   1.0000   1.0000   1.0000
        1.0000   1.0000   1.0000   1.0000   1.0000   1.0000   1.0000   1.0000
        1.0000   1.0000   1.0000   1.0000   1.0000   1.0000   1.0000   1.0000
        1.0000   1.0000   1.0000   1.0000   1.0000   1.0000   1.0000   1.0000
        1.0000   1.0000   1.0000   1.0000   1.0000   0.0000   1.0000   0.0000
        0.0000   0.0000   0.0000   0.0000   0.0000   0.0000   0.0000   0.0000
        0.0000   0.0000   0.0000   0.0000   0.0000   0.0000   0.0000   0.0000
        0.0000   0.0000   0.0000   0.0000   0.0000   0.0000   0.0000   0.0000

     Estimated max dynamical RAM per process >      60.23MB

     Estimated total allocated dynamical RAM >    5782.56MB
     Generating pointlists ...
     new r_m :   0.0854 (alat units)  1.1523 (a.u.) for type    1
     new r_m :   0.0854 (alat units)  1.1523 (a.u.) for type    2

     Initial potential from superposition of free atoms

     starting charge  252.99722, renormalised to  254.00000
     Starting wfc are  252 randomized atomic wfcs

     total cpu time spent up to now is        3.6 secs

     per-process dynamical memory:    59.5 Mb

     Self-consistent Calculation

     iteration #  1     ecut=    70.00 Ry     beta=0.50
     Davidson diagonalization with overlap
     ethr =  1.00E-02,  avg # of iterations =  3.0

     total cpu time spent up to now is        5.9 secs

     total energy              =    -722.44459208 Ry
     Harris-Foulkes estimate   =    -717.54960087 Ry
     estimated scf accuracy    <       6.66329666 Ry

     total magnetization       =     2.00 Bohr mag/cell
     absolute magnetization    =     3.67 Bohr mag/cell

     iteration #  2     ecut=    70.00 Ry     beta=0.50
     Davidson diagonalization with overlap
     ethr =  2.62E-03,  avg # of iterations =  2.0

     total cpu time spent up to now is        7.3 secs

     total energy              =    -724.24611625 Ry
     Harris-Foulkes estimate   =    -722.83415825 Ry
     estimated scf accuracy    <       1.47932131 Ry

     total magnetization       =     2.00 Bohr mag/cell
     absolute magnetization    =     2.51 Bohr mag/cell

     iteration #  3     ecut=    70.00 Ry     beta=0.50
     Davidson diagonalization with overlap
     ethr =  5.82E-04,  avg # of iterations =  7.1

     total cpu time spent up to now is       10.7 secs

     total energy              =    -724.52524344 Ry
     Harris-Foulkes estimate   =    -724.56948956 Ry
     estimated scf accuracy    <       0.73886527 Ry

     total magnetization       =     2.00 Bohr mag/cell
     absolute magnetization    =     2.14 Bohr mag/cell

     iteration #  4     ecut=    70.00 Ry     beta=0.50
     Davidson diagonalization with overlap
     ethr =  2.91E-04,  avg # of iterations =  6.1

     total cpu time spent up to now is       13.4 secs

     total energy              =    -724.67590420 Ry
     Harris-Foulkes estimate   =    -724.66494459 Ry
     estimated scf accuracy    <       0.02922365 Ry

     total magnetization       =     2.00 Bohr mag/cell
     absolute magnetization    =     2.14 Bohr mag/cell

     iteration #  5     ecut=    70.00 Ry     beta=0.50
     Davidson diagonalization with overlap
     ethr =  1.15E-05,  avg # of iterations = 10.3

     total cpu time spent up to now is       18.5 secs

     total energy              =    -724.68443657 Ry
     Harris-Foulkes estimate   =    -724.68403405 Ry
     estimated scf accuracy    <       0.00629606 Ry

     total magnetization       =     2.00 Bohr mag/cell
     absolute magnetization    =     2.15 Bohr mag/cell

     iteration #  6     ecut=    70.00 Ry     beta=0.50
     Davidson diagonalization with overlap
     ethr =  2.48E-06,  avg # of iterations =  8.9

     total cpu time spent up to now is       23.5 secs

     total energy              =    -724.68569942 Ry
     Harris-Foulkes estimate   =    -724.68577779 Ry
     estimated scf accuracy    <       0.00065609 Ry

     total magnetization       =     2.00 Bohr mag/cell
     absolute magnetization    =     2.17 Bohr mag/cell

     iteration #  7     ecut=    70.00 Ry     beta=0.50
     Davidson diagonalization with overlap
     ethr =  2.58E-07,  avg # of iterations =  3.3

     total cpu time spent up to now is       25.5 secs

     total energy              =    -724.68591016 Ry
     Harris-Foulkes estimate   =    -724.68588328 Ry
     estimated scf accuracy    <       0.00008833 Ry

     total magnetization       =     2.00 Bohr mag/cell
     absolute magnetization    =     2.17 Bohr mag/cell

     iteration #  8     ecut=    70.00 Ry     beta=0.50
     Davidson diagonalization with overlap
     ethr =  3.48E-08,  avg # of iterations =  3.4

     total cpu time spent up to now is       27.8 secs

     total energy              =    -724.68595635 Ry
     Harris-Foulkes estimate   =    -724.68593846 Ry
     estimated scf accuracy    <       0.00001810 Ry

     total magnetization       =     2.00 Bohr mag/cell
     absolute magnetization    =     2.18 Bohr mag/cell

     iteration #  9     ecut=    70.00 Ry     beta=0.50
     Davidson diagonalization with overlap
     ethr =  7.13E-09,  avg # of iterations =  3.9

     total cpu time spent up to now is       29.9 secs

     total energy              =    -724.68596964 Ry
     Harris-Foulkes estimate   =    -724.68596041 Ry
     estimated scf accuracy    <       0.00000516 Ry

     total magnetization       =     2.00 Bohr mag/cell
     absolute magnetization    =     2.19 Bohr mag/cell

     iteration # 10     ecut=    70.00 Ry     beta=0.50
     Davidson diagonalization with overlap
     ethr =  2.03E-09,  avg # of iterations =  4.8
 
     Magnetic moment per site:
     atom:    1    charge:    1.8247    magn:    0.0068    constr:    0.0000
     atom:    2    charge:    1.8410    magn:    0.0080    constr:    0.0000
     atom:    3    charge:    1.8302    magn:   -0.0013    constr:    0.0000
     atom:    4    charge:    1.8410    magn:    0.0080    constr:    0.0000
     atom:    5    charge:    1.8302    magn:   -0.0013    constr:    0.0000
     atom:    6    charge:    1.8197    magn:   -0.0000    constr:    0.0000
     atom:    7    charge:    1.8410    magn:    0.0080    constr:    0.0000
     atom:    8    charge:    1.8239    magn:   -0.0008    constr:    0.0000
     atom:    9    charge:    1.8046    magn:    0.0001    constr:    0.0000
     atom:   10    charge:    1.8175    magn:   -0.0014    constr:    0.0000
     atom:   11    charge:    1.8284    magn:   -0.0025    constr:    0.0000
     atom:   12    charge:    1.8175    magn:   -0.0014    constr:    0.0000
     atom:   13    charge:    1.8284    magn:   -0.0025    constr:    0.0000
     atom:   14    charge:    1.8237    magn:   -0.0015    constr:    0.0000
     atom:   15    charge:    1.8302    magn:   -0.0013    constr:    0.0000
     atom:   16    charge:    1.8310    magn:    0.0008    constr:    0.0000
     atom:   17    charge:    1.8284    magn:   -0.0025    constr:    0.0000
     atom:   18    charge:    1.8284    magn:   -0.0025    constr:    0.0000
     atom:   19    charge:    1.8310    magn:    0.0008    constr:    0.0000
     atom:   20    charge:    1.8239    magn:   -0.0008    constr:    0.0000
     atom:   21    charge:    1.8175    magn:   -0.0014    constr:    0.0000
     atom:   22    charge:    1.8175    magn:   -0.0014    constr:    0.0000
     atom:   23    charge:    1.8237    magn:   -0.0015    constr:    0.0000
     atom:   24    charge:    1.8046    magn:    0.0001    constr:    0.0000
     atom:   25    charge:    1.8284    magn:   -0.0025    constr:    0.0000
     atom:   26    charge:    1.8239    magn:   -0.0008    constr:    0.0000
     atom:   27    charge:    1.8175    magn:   -0.0014    constr:    0.0000
     atom:   28    charge:    1.8284    magn:   -0.0025    constr:    0.0000
     atom:   29    charge:    1.8310    magn:    0.0008    constr:    0.0000
     atom:   30    charge:    1.8046    magn:    0.0001    constr:    0.0000
     atom:   31    charge:    1.8175    magn:   -0.0014    constr:    0.0000
     atom:   32    charge:    1.8238    magn:    0.0060    constr:    0.0000
     atom:   33    charge:    1.8470    magn:    0.2006    constr:    0.0000
     atom:   34    charge:    1.8221    magn:    0.0165    constr:    0.0000
     atom:   35    charge:    1.8247    magn:    0.0068    constr:    0.0000
     atom:   36    charge:    1.8221    magn:    0.0165    constr:    0.0000
     atom:   37    charge:    1.8247    magn:    0.0068    constr:    0.0000
     atom:   38    charge:    1.8254    magn:    0.0050    constr:    0.0000
     atom:   39    charge:    1.8221    magn:    0.0165    constr:    0.0000
     atom:   40    charge:    1.8265    magn:    0.0040    constr:    0.0000
     atom:   41    charge:    1.8327    magn:    0.0094    constr:    0.0000
     atom:   42    charge:    1.8229    magn:    0.0173    constr:    0.0000
     atom:   43    charge:    1.8198    magn:    0.0046    constr:    0.0000
     atom:   44    charge:    1.8229    magn:    0.0173    constr:    0.0000
     atom:   45    charge:    1.8198    magn:    0.0046    constr:    0.0000
     atom:   46    charge:    1.8229    magn:    0.0173    constr:    0.0000
     atom:   47    charge:    1.8238    magn:    0.0060    constr:    0.0000
     atom:   48    charge:    1.8327    magn:    0.0094    constr:    0.0000
     atom:   49    charge:    1.8198    magn:    0.0046    constr:    0.0000
     atom:   50    charge:    1.8198    magn:    0.0046    constr:    0.0000
     atom:   51    charge:    1.8470    magn:    0.2006    constr:    0.0000
     atom:   52    charge:    1.8265    magn:    0.0040    constr:    0.0000
     atom:   53    charge:    1.8229    magn:    0.0173    constr:    0.0000
     atom:   54    charge:    1.8229    magn:    0.0173    constr:    0.0000
     atom:   55    charge:    1.8238    magn:    0.0060    constr:    0.0000
     atom:   56    charge:    1.8327    magn:    0.0094    constr:    0.0000
     atom:   57    charge:    1.8198    magn:    0.0046    constr:    0.0000
     atom:   58    charge:    1.8265    magn:    0.0040    constr:    0.0000
     atom:   59    charge:    1.8229    magn:    0.0173    constr:    0.0000
     atom:   60    charge:    1.8198    magn:    0.0046    constr:    0.0000
     atom:   61    charge:    1.8470    magn:    0.2006    constr:    0.0000
     atom:   62    charge:    1.8237    magn:   -0.0015    constr:    0.0000
     atom:   63    charge:    2.8920    magn:    0.1289    constr:    0.0000

     total cpu time spent up to now is       32.7 secs

     End of self-consistent calculation

 ------ SPIN UP ------------


          k = 0.0000 0.0000 0.0000 ( 24207 PWs)   bands (ev):

    -8.6517  -7.2480  -6.2857  -6.2857  -6.1506  -6.1506  -5.9066  -5.0395
    -4.1543  -4.1543  -4.1336  -4.1336  -4.0221  -4.0221  -3.9736  -3.9620
    -3.8573  -3.8573  -3.3761  -2.9884  -2.6777  -2.6777  -2.1124  -0.4196
    -0.4196  -0.3637  -0.3369  -0.1697   0.1428   0.1428   0.2605   0.2605
     0.3484   0.5746   0.7754   0.7754   0.9698   0.9698   1.0015   1.0090
     1.0090   1.0801   1.3258   1.3258   2.9938   3.7468   3.7468   3.9765
     4.1957   4.2097   4.2097   4.2140   4.2539   4.2539   4.4052   4.4052
     4.4471   4.4471   4.5854   4.6205   4.6205   4.6226   4.6582   4.7217
     4.7217   4.8549   4.9194   4.9194   5.0018   5.1888   5.1888   5.2337
     5.3179   5.3179   5.3671   5.4121   5.4121   5.9818   5.9818   6.0025
     6.5660   6.5660   6.7069   6.8905   6.9930   6.9930   7.4344   8.2294
     8.2294   8.3496   8.4402   8.4402   8.5985   8.5985   8.7570   8.7772
     8.7781   8.7781   8.8473   8.8473   8.8857   9.2279   9.2293   9.2293
     9.6316   9.6316   9.8574   9.8574   9.8604   9.8952   9.9319   9.9319
     9.9329   9.9480   9.9586   9.9586  10.0917  10.0917  10.2471  10.2471
    10.3100  10.5286  12.0867  12.3973  12.3973  13.4829  14.9482  14.9482
    17.2316  17.3150  17.3150  17.4836  17.5081  17.5081  17.8101  17.8697
    17.8697  17.9599  17.9599  18.3019  18.8530  18.8530  18.9137  20.5324
    20.7380  20.7380  20.8012  20.8677  20.8678  20.9551  20.9553  20.9828

     occupation numbers 
     1.0000   1.0000   1.0000   1.0000   1.0000   1.0000   1.0000   1.0000
     1.0000   1.0000   1.0000   1.0000   1.0000   1.0000   1.0000   1.0000
     1.0000   1.0000   1.0000   1.0000   1.0000   1.0000   1.0000   1.0000
     1.0000   1.0000   1.0000   1.0000   1.0000   1.0000   1.0000   1.0000
     1.0000   1.0000   1.0000   1.0000   1.0000   1.0000   1.0000   1.0000
     1.0000   1.0000   1.0000   1.0000   1.0000   1.0000   1.0000   1.0000
     1.0000   1.0000   1.0000   1.0000   1.0000   1.0000   1.0000   1.0000
     1.0000   1.0000   1.0000   1.0000   1.0000   1.0000   1.0000   1.0000
     1.0000   1.0000   1.0000   1.0000   1.0000   1.0000   1.0000   1.0000
     1.0000   1.0000   1.0000   1.0000   1.0000   1.0000   1.0000   1.0000
     1.0000   1.0000   1.0000   1.0000   1.0000   1.0000   1.0000   1.0000
     1.0000   1.0000   1.0000   1.0000   1.0000   1.0000   1.0000   1.0000
     1.0000   1.0000   1.0000   1.0000   1.0000   1.0000   1.0000   1.0000
     1.0000   1.0000   1.0000   1.0000   1.0000   1.0000   1.0000   1.0000
     1.0000   1.0000   1.0000   1.0000   1.0000   1.0000   1.0000   1.0000
     1.0000   1.0000   1.0000   1.0000   1.0000   1.0000   1.0000   1.0000
     0.0000   0.0000   0.0000   0.0000   0.0000   0.0000   0.0000   0.0000
     0.0000   0.0000   0.0000   0.0000   0.0000   0.0000   0.0000   0.0000
     0.0000   0.0000   0.0000   0.0000   0.0000   0.0000   0.0000   0.0000

          k = 0.0000 0.0000 0.3333 ( 24280 PWs)   bands (ev):

    -8.4493  -7.6446  -6.7582  -6.0429  -5.9118  -5.8296  -5.5210  -5.2944
    -5.1506  -5.0039  -4.5419  -4.1571  -3.8142  -3.8102  -3.6849  -3.4533
    -3.2066  -3.1496  -2.9340  -2.6219  -2.5050  -2.3662  -2.3344  -1.8001
    -0.8925  -0.6988  -0.5660  -0.3616   0.1256   0.1994   0.3587   0.4093
     0.4757   0.5527   0.5618   0.6607   0.7216   0.7357   0.9948   1.4547
     1.9572   2.0005   2.1669   2.1858   2.4057   2.4721   2.4726   2.7443
     2.9320   2.9912   3.1513   3.1782   3.8452   3.9172   4.0489   4.0669
     4.2901   4.3293   4.4786   4.5337   5.0123   5.0688   5.1093   5.2006
     5.2034   5.5567   5.5947   5.6991   5.7612   6.0290   6.0788   6.1590
     6.1943   6.3088   6.3702   6.4628   6.5072   6.5754   6.6123   6.7312
     6.7709   6.8849   6.9069   6.9312   7.1392   7.1486   7.1778   7.2727
     7.3701   7.4730   7.6609   7.7613   7.8152   8.0621   8.1134   8.2772
     8.3163   8.4480   8.6158   8.7021   8.7636   9.0527   9.1776   9.3322
     9.3596   9.6078   9.6379   9.7029   9.8088   9.9129   9.9321   9.9400
     9.9569  10.0457  10.0710  10.1197  10.2069  10.2557  10.2667  10.3504
    10.3832  11.0213  11.6688  11.6942  11.9319  13.1477  14.6326  14.7938
    17.1521  17.2916  17.9391  18.2627  18.3297  18.4840  18.5009  18.5873
    18.8090  18.8261  18.9619  19.0617  19.1747  19.7919  19.8395  20.4132
    20.6339  20.6516  20.7742  20.7908  20.8199  20.8487  20.8995  20.9343

     occupation numbers 
     1.0000   1.0000   1.0000   1.0000   1.0000   1.0000   1.0000   1.0000
     1.0000   1.0000   1.0000   1.0000   1.0000   1.0000   1.0000   1.0000
     1.0000   1.0000   1.0000   1.0000   1.0000   1.0000   1.0000   1.0000
     1.0000   1.0000   1.0000   1.0000   1.0000   1.0000   1.0000   1.0000
     1.0000   1.0000   1.0000   1.0000   1.0000   1.0000   1.0000   1.0000
     1.0000   1.0000   1.0000   1.0000   1.0000   1.0000   1.0000   1.0000
     1.0000   1.0000   1.0000   1.0000   1.0000   1.0000   1.0000   1.0000
     1.0000   1.0000   1.0000   1.0000   1.0000   1.0000   1.0000   1.0000
     1.0000   1.0000   1.0000   1.0000   1.0000   1.0000   1.0000   1.0000
     1.0000   1.0000   1.0000   1.0000   1.0000   1.0000   1.0000   1.0000
     1.0000   1.0000   1.0000   1.0000   1.0000   1.0000   1.0000   1.0000
     1.0000   1.0000   1.0000   1.0000   1.0000   1.0000   1.0000   1.0000
     1.0000   1.0000   1.0000   1.0000   1.0000   1.0000   1.0000   1.0000
     1.0000   1.0000   1.0000   1.0000   1.0000   1.0000   1.0000   1.0000
     1.0000   1.0000   1.0000   1.0000   1.0000   1.0000   1.0000   1.0000
     1.0000   1.0000   1.0000   1.0000   1.0000   1.0000   1.0000   1.0000
     0.0000   0.0000   0.0000   0.0000   0.0000   0.0000   0.0000   0.0000
     0.0000   0.0000   0.0000   0.0000   0.0000   0.0000   0.0000   0.0000
     0.0000   0.0000   0.0000   0.0000   0.0000   0.0000   0.0000   0.0000

          k = 0.0000 0.3333 0.3333 ( 24236 PWs)   bands (ev):

    -8.2740  -7.4967  -7.2231  -6.6273  -6.0220  -5.6735  -5.3756  -5.0113
    -4.9824  -4.8618  -4.5156  -4.2516  -4.2214  -3.9371  -3.5710  -3.5259
    -2.8249  -2.3850  -2.3465  -2.3160  -2.1932  -2.1918  -2.0443  -1.8891
    -1.4810  -1.3306  -1.1029  -0.9163  -0.5644  -0.0715   0.0507   0.1321
     0.1661   0.4613   0.6692   1.1749   1.1881   1.3243   1.3621   1.3892
     1.4261   1.4679   1.9424   2.0519   2.1175   2.3828   2.7152   2.8095
     2.9551   3.4718   3.6336   3.6375   3.7597   3.8131   3.9596   4.0391
     4.1223   4.5292   4.6343   4.7864   5.0012   5.0415   5.1392   5.2932
     5.3096   5.5790   5.6241   5.6742   5.7314   5.9058   5.9983   6.0656
     6.1475   6.2359   6.2885   6.4713   6.5346   6.5895   6.6546   6.8326
     6.9243   6.9519   7.0014   7.0602   7.2193   7.2659   7.4771   7.6622
     7.9229   7.9318   8.0548   8.0604   8.1201   8.2319   8.2680   8.3066
     8.3641   8.4109   8.5214   8.6397   8.6707   8.7079   8.8391   8.8866
     9.0945   9.1766   9.2361   9.3050   9.4620   9.4664   9.5429   9.6465
     9.7123   9.7754   9.9078  10.0378  10.0640  10.1427  10.3669  10.6458
    10.9777  11.1995  11.5543  11.5588  12.2059  12.9189  14.5546  14.8755
    18.0147  18.1687  18.1989  18.2986  18.3482  18.7913  18.8543  18.9636
    19.1634  19.2033  19.4351  19.4798  19.6817  19.7998  19.9580  19.9900
    20.1760  20.4153  20.4689  20.4933  20.5544  20.5822  20.6107  20.6278

     occupation numbers 
     1.0000   1.0000   1.0000   1.0000   1.0000   1.0000   1.0000   1.0000
     1.0000   1.0000   1.0000   1.0000   1.0000   1.0000   1.0000   1.0000
     1.0000   1.0000   1.0000   1.0000   1.0000   1.0000   1.0000   1.0000
     1.0000   1.0000   1.0000   1.0000   1.0000   1.0000   1.0000   1.0000
     1.0000   1.0000   1.0000   1.0000   1.0000   1.0000   1.0000   1.0000
     1.0000   1.0000   1.0000   1.0000   1.0000   1.0000   1.0000   1.0000
     1.0000   1.0000   1.0000   1.0000   1.0000   1.0000   1.0000   1.0000
     1.0000   1.0000   1.0000   1.0000   1.0000   1.0000   1.0000   1.0000
     1.0000   1.0000   1.0000   1.0000   1.0000   1.0000   1.0000   1.0000
     1.0000   1.0000   1.0000   1.0000   1.0000   1.0000   1.0000   1.0000
     1.0000   1.0000   1.0000   1.0000   1.0000   1.0000   1.0000   1.0000
     1.0000   1.0000   1.0000   1.0000   1.0000   1.0000   1.0000   1.0000
     1.0000   1.0000   1.0000   1.0000   1.0000   1.0000   1.0000   1.0000
     1.0000   1.0000   1.0000   1.0000   1.0000   1.0000   1.0000   1.0000
     1.0000   1.0000   1.0000   1.0000   1.0000   1.0000   1.0000   1.0000
     1.0000   1.0000   1.0000   1.0000   1.0000   1.0000   1.0000   1.0000
     0.0000   0.0000   0.0000   0.0000   0.0000   0.0000   0.0000   0.0000
     0.0000   0.0000   0.0000   0.0000   0.0000   0.0000   0.0000   0.0000
     0.0000   0.0000   0.0000   0.0000   0.0000   0.0000   0.0000   0.0000

          k = 0.3333 0.3333 0.3333 ( 24303 PWs)   bands (ev):

    -8.1293  -7.3234  -6.9760  -6.9760  -6.3518  -6.2141  -6.2141  -5.4762
    -4.2982  -4.0304  -4.0304  -3.5859  -3.3867  -3.3867  -3.3623  -3.3623
    -3.2705  -2.9125  -2.6644  -2.6644  -1.9559  -1.9344  -1.9344  -1.5469
    -1.4619  -1.4619  -1.3925  -1.3925  -1.3015  -1.2117  -1.2117   0.0337
     0.8403   0.8403   0.9358   0.9675   0.9675   1.2643   1.8207   1.8207
     1.8705   1.8841   1.9865   1.9865   2.5534   2.5534   2.5877   2.7245
     2.7390   2.7390   3.1280   3.1280   3.5220   4.0550   4.2949   4.2949
     4.7852   4.8654   4.8654   4.9726   5.0854   5.0854   5.1335   5.2941
     5.2941   5.3891   5.4868   5.4868   5.5299   5.5299   5.5785   6.3337
     6.6502   6.6502   6.9599   6.9742   7.0120   7.0120   7.0952   7.0952
     7.2023   7.2023   7.2478   7.2534   7.2534   7.2605   7.3677   7.3677
     7.3942   7.4730   7.7246   7.7246   7.9081   7.9081   7.9604   8.0170
     8.1913   8.1913   8.2885   8.2885   8.3121   8.4571   8.4609   8.4609
     8.6818   8.6818   8.7385   9.0860   9.0882   9.5259   9.5259   9.7665
     9.7665  10.4644  10.4777  10.4777  10.5317  10.9460  10.9460  11.0822
    11.2719  11.2719  11.3222  11.6484  11.6484  12.8072  14.8549  14.8549
    18.0449  18.2195  18.2195  18.4526  18.6286  18.6286  19.2040  19.3611
    19.3611  19.5464  19.5464  19.5829  19.6215  19.6215  19.6694  19.7404
    19.7404  19.8608  19.9117  19.9117  19.9919  19.9920  20.0326  20.1666

     occupation numbers 
     1.0000   1.0000   1.0000   1.0000   1.0000   1.0000   1.0000   1.0000
     1.0000   1.0000   1.0000   1.0000   1.0000   1.0000   1.0000   1.0000
     1.0000   1.0000   1.0000   1.0000   1.0000   1.0000   1.0000   1.0000
     1.0000   1.0000   1.0000   1.0000   1.0000   1.0000   1.0000   1.0000
     1.0000   1.0000   1.0000   1.0000   1.0000   1.0000   1.0000   1.0000
     1.0000   1.0000   1.0000   1.0000   1.0000   1.0000   1.0000   1.0000
     1.0000   1.0000   1.0000   1.0000   1.0000   1.0000   1.0000   1.0000
     1.0000   1.0000   1.0000   1.0000   1.0000   1.0000   1.0000   1.0000
     1.0000   1.0000   1.0000   1.0000   1.0000   1.0000   1.0000   1.0000
     1.0000   1.0000   1.0000   1.0000   1.0000   1.0000   1.0000   1.0000
     1.0000   1.0000   1.0000   1.0000   1.0000   1.0000   1.0000   1.0000
     1.0000   1.0000   1.0000   1.0000   1.0000   1.0000   1.0000   1.0000
     1.0000   1.0000   1.0000   1.0000   1.0000   1.0000   1.0000   1.0000
     1.0000   1.0000   1.0000   1.0000   1.0000   1.0000   1.0000   1.0000
     1.0000   1.0000   1.0000   1.0000   1.0000   1.0000   1.0000   1.0000
     1.0000   1.0000   1.0000   1.0000   1.0000   1.0000   1.0000   1.0000
     0.0000   0.0000   0.0000   0.0000   0.0000   0.0000   0.0000   0.0000
     0.0000   0.0000   0.0000   0.0000   0.0000   0.0000   0.0000   0.0000
     0.0000   0.0000   0.0000   0.0000   0.0000   0.0000   0.0000   0.0000

          k =-0.3333 0.0000 0.3333 ( 24236 PWs)   bands (ev):

    -8.2613  -7.5961  -7.1031  -6.6182  -6.0733  -5.6805  -5.3966  -5.0496
    -4.9305  -4.7518  -4.5382  -4.3204  -4.2267  -4.0512  -3.6013  -3.3363
    -2.8095  -2.4373  -2.3788  -2.2802  -2.2087  -2.1547  -2.0986  -1.6763
    -1.6294  -1.3203  -1.1169  -1.0064  -0.5938  -0.0338   0.0570   0.1070
     0.2791   0.4895   0.8809   1.0184   1.1707   1.2062   1.2373   1.3806
     1.4867   1.5820   1.8468   1.8751   2.1271   2.5805   2.6478   2.8656
     2.9550   3.4518   3.6209   3.7018   3.7493   3.9073   4.0052   4.1248
     4.1652   4.3787   4.5457   4.7818   4.9525   4.9815   5.1664   5.2438
     5.4018   5.5477   5.6217   5.6860   5.7848   5.9896   6.0707   6.1240
     6.1717   6.2306   6.2752   6.3951   6.4511   6.6159   6.6275   6.7910
     6.8820   6.9597   7.0167   7.0917   7.2197   7.3616   7.4816   7.6406
     7.8174   7.8633   7.9427   8.0744   8.1718   8.2085   8.2693   8.2751
     8.3603   8.4338   8.5451   8.5801   8.7392   8.7527   8.8964   8.9591
     9.0648   9.1276   9.2227   9.3180   9.4245   9.4849   9.5180   9.6622
     9.7177   9.7567   9.9456  10.0362  10.0765  10.1000  10.4965  10.7290
    10.8862  11.1138  11.4461  11.5711  12.1901  13.2210  14.4756  14.7607
    18.0032  18.1807  18.2522  18.3043  18.3510  18.7858  18.9181  19.0887
    19.0993  19.2624  19.3226  19.4749  19.6879  19.8219  19.8620  19.9997
    20.2200  20.3296  20.3972  20.5042  20.5361  20.5807  20.6369  20.6791

     occupation numbers 
     1.0000   1.0000   1.0000   1.0000   1.0000   1.0000   1.0000   1.0000
     1.0000   1.0000   1.0000   1.0000   1.0000   1.0000   1.0000   1.0000
     1.0000   1.0000   1.0000   1.0000   1.0000   1.0000   1.0000   1.0000
     1.0000   1.0000   1.0000   1.0000   1.0000   1.0000   1.0000   1.0000
     1.0000   1.0000   1.0000   1.0000   1.0000   1.0000   1.0000   1.0000
     1.0000   1.0000   1.0000   1.0000   1.0000   1.0000   1.0000   1.0000
     1.0000   1.0000   1.0000   1.0000   1.0000   1.0000   1.0000   1.0000
     1.0000   1.0000   1.0000   1.0000   1.0000   1.0000   1.0000   1.0000
     1.0000   1.0000   1.0000   1.0000   1.0000   1.0000   1.0000   1.0000
     1.0000   1.0000   1.0000   1.0000   1.0000   1.0000   1.0000   1.0000
     1.0000   1.0000   1.0000   1.0000   1.0000   1.0000   1.0000   1.0000
     1.0000   1.0000   1.0000   1.0000   1.0000   1.0000   1.0000   1.0000
     1.0000   1.0000   1.0000   1.0000   1.0000   1.0000   1.0000   1.0000
     1.0000   1.0000   1.0000   1.0000   1.0000   1.0000   1.0000   1.0000
     1.0000   1.0000   1.0000   1.0000   1.0000   1.0000   1.0000   1.0000
     1.0000   1.0000   1.0000   1.0000   1.0000   1.0000   1.0000   1.0000
     0.0000   0.0000   0.0000   0.0000   0.0000   0.0000   0.0000   0.0000
     0.0000   0.0000   0.0000   0.0000   0.0000   0.0000   0.0000   0.0000
     0.0000   0.0000   0.0000   0.0000   0.0000   0.0000   0.0000   0.0000

          k = 0.3333-0.3333 0.3333 ( 24303 PWs)   bands (ev):

    -8.1089  -7.4435  -6.9766  -6.8293  -6.4986  -6.2123  -5.9933  -5.5245
    -4.6069  -4.0344  -3.9474  -3.7223  -3.4307  -3.3728  -3.3298  -3.1921
    -3.0776  -2.8947  -2.6941  -2.4371  -2.1055  -1.9025  -1.8620  -1.7307
    -1.4975  -1.4818  -1.4094  -1.3539  -1.3479  -1.2505  -1.1500  -0.1126
     0.7130   0.8849   0.9441   0.9706   1.0519   1.4018   1.6907   1.7598
     1.8598   1.9246   2.0447   2.2291   2.5517   2.5873   2.6825   2.7113
     2.7310   2.7748   2.8985   3.1718   3.4743   3.9493   4.2100   4.3188
     4.7473   4.7479   4.8368   4.9997   5.0034   5.0664   5.1813   5.2528
     5.2745   5.4266   5.4384   5.5124   5.6535   5.7750   5.8320   6.4055
     6.5887   6.6956   6.9052   6.9172   6.9673   7.0305   7.0779   7.0869
     7.1598   7.1851   7.2371   7.2573   7.2807   7.3124   7.3441   7.3570
     7.3905   7.4397   7.7224   7.7378   7.8034   7.9222   7.9497   7.9553
     8.1302   8.1627   8.2741   8.2841   8.3829   8.3851   8.4127   8.5163
     8.6890   8.7389   8.9347   8.9885   9.0831   9.5055   9.5832   9.5965
     9.8768  10.3824  10.4241  10.5320  10.5389  10.8610  10.9249  11.1185
    11.2241  11.2471  11.3090  11.7049  11.7400  13.1946  14.5458  14.8436
    18.0621  18.2526  18.3181  18.5158  18.6492  18.7092  19.1324  19.3635
    19.4216  19.4871  19.5163  19.5512  19.5997  19.6234  19.6454  19.7220
    19.7418  19.7822  19.8990  19.9069  19.9894  19.9902  20.0378  20.1488

     occupation numbers 
     1.0000   1.0000   1.0000   1.0000   1.0000   1.0000   1.0000   1.0000
     1.0000   1.0000   1.0000   1.0000   1.0000   1.0000   1.0000   1.0000
     1.0000   1.0000   1.0000   1.0000   1.0000   1.0000   1.0000   1.0000
     1.0000   1.0000   1.0000   1.0000   1.0000   1.0000   1.0000   1.0000
     1.0000   1.0000   1.0000   1.0000   1.0000   1.0000   1.0000   1.0000
     1.0000   1.0000   1.0000   1.0000   1.0000   1.0000   1.0000   1.0000
     1.0000   1.0000   1.0000   1.0000   1.0000   1.0000   1.0000   1.0000
     1.0000   1.0000   1.0000   1.0000   1.0000   1.0000   1.0000   1.0000
     1.0000   1.0000   1.0000   1.0000   1.0000   1.0000   1.0000   1.0000
     1.0000   1.0000   1.0000   1.0000   1.0000   1.0000   1.0000   1.0000
     1.0000   1.0000   1.0000   1.0000   1.0000   1.0000   1.0000   1.0000
     1.0000   1.0000   1.0000   1.0000   1.0000   1.0000   1.0000   1.0000
     1.0000   1.0000   1.0000   1.0000   1.0000   1.0000   1.0000   1.0000
     1.0000   1.0000   1.0000   1.0000   1.0000   1.0000   1.0000   1.0000
     1.0000   1.0000   1.0000   1.0000   1.0000   1.0000   1.0000   1.0000
     1.0000   1.0000   1.0000   1.0000   1.0000   1.0000   1.0000   1.0000
     0.0000   0.0000   0.0000   0.0000   0.0000   0.0000   0.0000   0.0000
     0.0000   0.0000   0.0000   0.0000   0.0000   0.0000   0.0000   0.0000
     0.0000   0.0000   0.0000   0.0000   0.0000   0.0000   0.0000   0.0000

 ------ SPIN DOWN ----------


          k = 0.0000 0.0000 0.0000 ( 24207 PWs)   bands (ev):

    -8.6102  -7.1678  -6.2681  -6.2681  -6.1172  -6.1172  -5.8693  -4.9940
    -4.1360  -4.1360  -4.1185  -4.1185  -3.9770  -3.9770  -3.9539  -3.9461
    -3.8147  -3.8147  -3.3321  -2.9599  -2.6303  -2.6303  -1.9935  -0.4018
    -0.4018  -0.3434  -0.3007  -0.0982   0.1611   0.1611   0.2925   0.2925
     0.3697   0.6116   0.7904   0.7904   0.9953   0.9953   1.0251   1.0251
     1.0256   1.0965   1.4647   1.4647   3.1075   3.7823   3.7823   4.0100
     4.2310   4.2340   4.2340   4.2361   4.2779   4.2779   4.4344   4.4344
     4.4815   4.4815   4.6022   4.6389   4.6389   4.6515   4.6717   4.7564
     4.7564   4.8785   4.9466   4.9466   5.0882   5.2224   5.2224   5.2666
     5.3294   5.3294   5.3763   5.4580   5.4580   6.0340   6.0340   6.0574
     6.5951   6.5951   6.7335   6.9667   7.0697   7.0697   7.6126   8.2693
     8.2693   8.3892   8.4691   8.4691   8.6312   8.6312   8.7938   8.7938
     8.7974   8.8264   8.8901   8.8901   8.9021   9.2598   9.2598   9.2630
     9.6636   9.6636   9.8692   9.8742   9.8742   9.9092   9.9558   9.9558
     9.9644   9.9659   9.9825   9.9825  10.1256  10.1256  10.2976  10.2976
    10.3573  11.0382  12.4535  12.5111  12.5111  14.1446  16.0408  16.0408
    17.2790  17.3339  17.3339  17.5073  17.5536  17.5536  17.8462  17.8923
    17.8923  17.9929  17.9929  18.4067  18.9305  18.9305  18.9622  20.6018
    20.7522  20.7522  20.8127  20.8905  20.8906  20.9760  20.9762  21.0037

     occupation numbers 
     1.0000   1.0000   1.0000   1.0000   1.0000   1.0000   1.0000   1.0000
     1.0000   1.0000   1.0000   1.0000   1.0000   1.0000   1.0000   1.0000
     1.0000   1.0000   1.0000   1.0000   1.0000   1.0000   1.0000   1.0000
     1.0000   1.0000   1.0000   1.0000   1.0000   1.0000   1.0000   1.0000
     1.0000   1.0000   1.0000   1.0000   1.0000   1.0000   1.0000   1.0000
     1.0000   1.0000   1.0000   1.0000   1.0000   1.0000   1.0000   1.0000
     1.0000   1.0000   1.0000   1.0000   1.0000   1.0000   1.0000   1.0000
     1.0000   1.0000   1.0000   1.0000   1.0000   1.0000   1.0000   1.0000
     1.0000   1.0000   1.0000   1.0000   1.0000   1.0000   1.0000   1.0000
     1.0000   1.0000   1.0000   1.0000   1.0000   1.0000   1.0000   1.0000
     1.0000   1.0000   1.0000   1.0000   1.0000   1.0000   1.0000   1.0000
     1.0000   1.0000   1.0000   1.0000   1.0000   1.0000   1.0000   1.0000
     1.0000   1.0000   1.0000   1.0000   1.0000   1.0000   1.0000   1.0000
     1.0000   1.0000   1.0000   1.0000   1.0000   1.0000   1.0000   1.0000
     1.0000   1.0000   1.0000   1.0000   1.0000   1.0000   1.0000   1.0000
     1.0000   1.0000   1.0000   1.0000   1.0000   0.0000   1.0000   0.0000
     0.0000   0.0000   0.0000   0.0000   0.0000   0.0000   0.0000   0.0000
     0.0000   0.0000   0.0000   0.0000   0.0000   0.0000   0.0000   0.0000
     0.0000   0.0000   0.0000   0.0000   0.0000   0.0000   0.0000   0.0000

          k = 0.0000 0.0000 0.3333 ( 24280 PWs)   bands (ev):

    -8.4032  -7.6012  -6.6920  -6.0254  -5.8814  -5.8040  -5.4986  -5.2767
    -5.1088  -4.9555  -4.5070  -4.1308  -3.7890  -3.7736  -3.6568  -3.4263
    -3.1681  -3.1078  -2.8949  -2.5934  -2.4861  -2.3235  -2.2880  -1.7197
    -0.8406  -0.6794  -0.5304  -0.3040   0.1665   0.2179   0.3816   0.4287
     0.5014   0.5866   0.5876   0.6868   0.7567   0.7657   1.0745   1.5136
     1.9931   2.0222   2.2042   2.2168   2.4515   2.5076   2.5119   2.7735
     2.9679   3.0126   3.2361   3.2442   3.8669   3.9555   4.0738   4.0855
     4.3101   4.3801   4.5190   4.5729   5.0508   5.1359   5.1542   5.2304
     5.2360   5.5923   5.6191   5.7345   5.8017   6.0634   6.1059   6.2051
     6.2214   6.3285   6.3997   6.4846   6.5487   6.6354   6.6410   6.7580
     6.7978   6.9220   6.9369   6.9721   7.1681   7.1747   7.2133   7.3073
     7.4194   7.5170   7.7450   7.8024   7.8651   8.0848   8.1444   8.3173
     8.3389   8.4708   8.6790   8.7585   8.7997   9.1191   9.2589   9.3782
     9.3979   9.6468   9.6670   9.7204   9.8437   9.9269   9.9591   9.9674
    10.0024  10.0768  10.1311  10.1382  10.2416  10.2995  10.3024  10.4295
    10.4333  11.3055  11.7572  11.8098  12.1197  14.0017  15.7332  15.9303
    17.1901  17.3222  17.9668  18.2987  18.3475  18.5065  18.5235  18.6298
    18.8461  18.8479  19.0029  19.1024  19.2609  19.8493  19.8860  20.4694
    20.6507  20.6880  20.7921  20.8076  20.8359  20.8770  20.9273  20.9556

     occupation numbers 
     1.0000   1.0000   1.0000   1.0000   1.0000   1.0000   1.0000   1.0000
     1.0000   1.0000   1.0000   1.0000   1.0000   1.0000   1.0000   1.0000
     1.0000   1.0000   1.0000   1.0000   1.0000   1.0000   1.0000   1.0000
     1.0000   1.0000   1.0000   1.0000   1.0000   1.0000   1.0000   1.0000
     1.0000   1.0000   1.0000   1.0000   1.0000   1.0000   1.0000   1.0000
     1.0000   1.0000   1.0000   1.0000   1.0000   1.0000   1.0000   1.0000
     1.0000   1.0000   1.0000   1.0000   1.0000   1.0000   1.0000   1.0000
     1.0000   1.0000   1.0000   1.0000   1.0000   1.0000   1.0000   1.0000
     1.0000   1.0000   1.0000   1.0000   1.0000   1.0000   1.0000   1.0000
     1.0000   1.0000   1.0000   1.0000   1.0000   1.0000   1.0000   1.0000
     1.0000   1.0000   1.0000   1.0000   1.0000   1.0000   1.0000   1.0000
     1.0000   1.0000   1.0000   1.0000   1.0000   1.0000   1.0000   1.0000
     1.0000   1.0000   1.0000   1.0000   1.0000   1.0000   1.0000   1.0000
     1.0000   1.0000   1.0000   1.0000   1.0000   1.0000   1.0000   1.0000
     1.0000   1.0000   1.0000   1.0000   1.0000   1.0000   1.0000   1.0000
     1.0000   1.0000   1.0000   1.0000   1.0000   0.0000   1.0000   0.0000
     0.0000   0.0000   0.0000   0.0000   0.0000   0.0000   0.0000   0.0000
     0.0000   0.0000   0.0000   0.0000   0.0000   0.0000   0.0000   0.0000
     0.0000   0.0000   0.0000   0.0000   0.0000   0.0000   0.0000   0.0000

          k = 0.0000 0.3333 0.3333 ( 24236 PWs)   bands (ev):

    -8.2210  -7.4496  -7.1973  -6.5865  -5.9841  -5.6447  -5.3393  -4.9805
    -4.9602  -4.8367  -4.4721  -4.2261  -4.1935  -3.8900  -3.5236  -3.4968
    -2.7863  -2.3639  -2.3183  -2.2949  -2.1630  -2.1551  -1.9989  -1.8466
    -1.4483  -1.3021  -1.0563  -0.8689  -0.4856  -0.0255   0.0706   0.1544
     0.2023   0.5027   0.7143   1.1988   1.2095   1.3442   1.3957   1.4215
     1.4638   1.5125   1.9705   2.1048   2.1804   2.4431   2.7393   2.8550
     2.9995   3.5284   3.6586   3.6644   3.7955   3.8329   4.0023   4.0637
     4.1721   4.5943   4.6656   4.8381   5.0368   5.0627   5.1720   5.3225
     5.3526   5.6205   5.6515   5.7229   5.7746   5.9346   6.0356   6.1041
     6.1600   6.2696   6.3188   6.5071   6.5552   6.6215   6.6884   6.8698
     6.9459   6.9761   7.0597   7.0896   7.2608   7.3080   7.5335   7.7187
     7.9636   8.0013   8.0870   8.0882   8.1422   8.2624   8.2974   8.3434
     8.4007   8.4367   8.5617   8.6673   8.7246   8.7341   8.8917   8.9194
     9.1200   9.2294   9.2650   9.3508   9.5007   9.5009   9.6054   9.6728
     9.7588   9.8171   9.9433  10.0910  10.0937  10.1738  10.4454  10.7835
    11.0795  11.2635  11.5857  11.8563  12.2753  13.8652  15.6734  15.9768
    18.0638  18.1967  18.2374  18.3216  18.3800  18.8169  18.8762  18.9963
    19.2010  19.2361  19.4694  19.5052  19.7085  19.8410  19.9877  20.0305
    20.2076  20.4410  20.4887  20.5176  20.5832  20.6132  20.6285  20.6564

     occupation numbers 
     1.0000   1.0000   1.0000   1.0000   1.0000   1.0000   1.0000   1.0000
     1.0000   1.0000   1.0000   1.0000   1.0000   1.0000   1.0000   1.0000
     1.0000   1.0000   1.0000   1.0000   1.0000   1.0000   1.0000   1.0000
     1.0000   1.0000   1.0000   1.0000   1.0000   1.0000   1.0000   1.0000
     1.0000   1.0000   1.0000   1.0000   1.0000   1.0000   1.0000   1.0000
     1.0000   1.0000   1.0000   1.0000   1.0000   1.0000   1.0000   1.0000
     1.0000   1.0000   1.0000   1.0000   1.0000   1.0000   1.0000   1.0000
     1.0000   1.0000   1.0000   1.0000   1.0000   1.0000   1.0000   1.0000
     1.0000   1.0000   1.0000   1.0000   1.0000   1.0000   1.0000   1.0000
     1.0000   1.0000   1.0000   1.0000   1.0000   1.0000   1.0000   1.0000
     1.0000   1.0000   1.0000   1.0000   1.0000   1.0000   1.0000   1.0000
     1.0000   1.0000   1.0000   1.0000   1.0000   1.0000   1.0000   1.0000
     1.0000   1.0000   1.0000   1.0000   1.0000   1.0000   1.0000   1.0000
     1.0000   1.0000   1.0000   1.0000   1.0000   1.0000   1.0000   1.0000
     1.0000   1.0000   1.0000   1.0000   1.0000   1.0000   1.0000   1.0000
     1.0000   1.0000   1.0000   1.0000   1.0000   0.0000   1.0000   0.0000
     0.0000   0.0000   0.0000   0.0000   0.0000   0.0000   0.0000   0.0000
     0.0000   0.0000   0.0000   0.0000   0.0000   0.0000   0.0000   0.0000
     0.0000   0.0000   0.0000   0.0000   0.0000   0.0000   0.0000   0.0000

          k = 0.3333 0.3333 0.3333 ( 24303 PWs)   bands (ev):

    -8.0676  -7.2785  -6.9511  -6.9511  -6.3158  -6.1857  -6.1857  -5.4269
    -4.2270  -4.0065  -4.0065  -3.5452  -3.3704  -3.3704  -3.3217  -3.3217
    -3.2512  -2.8886  -2.6202  -2.6202  -1.9311  -1.9145  -1.9145  -1.5237
    -1.4435  -1.4435  -1.3691  -1.3691  -1.2796  -1.1208  -1.1208   0.1624
     0.8636   0.8636   0.9944   0.9944   1.0005   1.3019   1.8471   1.8471
     1.8980   1.9230   2.0200   2.0200   2.5788   2.5788   2.6164   2.7418
     2.7665   2.7665   3.2125   3.2125   3.5608   4.1309   4.3216   4.3216
     4.8472   4.9081   4.9081   4.9891   5.1084   5.1084   5.1878   5.3249
     5.3249   5.4166   5.5145   5.5145   5.5626   5.5626   5.6338   6.4276
     6.6984   6.6984   6.9716   7.0183   7.0361   7.0361   7.1185   7.1185
     7.2224   7.2224   7.2728   7.2745   7.2781   7.2781   7.3995   7.3995
     7.4207   7.5338   7.7650   7.7650   7.9347   7.9347   7.9825   8.0368
     8.2243   8.2243   8.3143   8.3143   8.3321   8.4727   8.5117   8.5117
     8.7159   8.7159   8.8428   9.1270   9.1627   9.5764   9.5764   9.8437
     9.8437  10.5038  10.5038  10.5550  10.6118  10.9992  10.9992  11.2985
    11.2985  11.3460  11.5693  11.6888  11.6888  13.7132  15.9915  15.9915
    18.1062  18.2433  18.2433  18.4789  18.6586  18.6586  19.2375  19.3753
    19.3753  19.5697  19.5697  19.5969  19.6440  19.6440  19.6908  19.7583
    19.7583  19.8864  19.9382  19.9382  20.0308  20.0308  20.0468  20.1970

     occupation numbers 
     1.0000   1.0000   1.0000   1.0000   1.0000   1.0000   1.0000   1.0000
     1.0000   1.0000   1.0000   1.0000   1.0000   1.0000   1.0000   1.0000
     1.0000   1.0000   1.0000   1.0000   1.0000   1.0000   1.0000   1.0000
     1.0000   1.0000   1.0000   1.0000   1.0000   1.0000   1.0000   1.0000
     1.0000   1.0000   1.0000   1.0000   1.0000   1.0000   1.0000   1.0000
     1.0000   1.0000   1.0000   1.0000   1.0000   1.0000   1.0000   1.0000
     1.0000   1.0000   1.0000   1.0000   1.0000   1.0000   1.0000   1.0000
     1.0000   1.0000   1.0000   1.0000   1.0000   1.0000   1.0000   1.0000
     1.0000   1.0000   1.0000   1.0000   1.0000   1.0000   1.0000   1.0000
     1.0000   1.0000   1.0000   1.0000   1.0000   1.0000   1.0000   1.0000
     1.0000   1.0000   1.0000   1.0000   1.0000   1.0000   1.0000   1.0000
     1.0000   1.0000   1.0000   1.0000   1.0000   1.0000   1.0000   1.0000
     1.0000   1.0000   1.0000   1.0000   1.0000   1.0000   1.0000   1.0000
     1.0000   1.0000   1.0000   1.0000   1.0000   1.0000   1.0000   1.0000
     1.0000   1.0000   1.0000   1.0000   1.0000   1.0000   1.0000   1.0000
     1.0000   1.0000   1.0000   1.0000   1.0000   0.0000   1.0000   0.0000
     0.0000   0.0000   0.0000   0.0000   0.0000   0.0000   0.0000   0.0000
     0.0000   0.0000   0.0000   0.0000   0.0000   0.0000   0.0000   0.0000
     0.0000   0.0000   0.0000   0.0000   0.0000   0.0000   0.0000   0.0000

          k =-0.3333 0.0000 0.3333 ( 24236 PWs)   bands (ev):

    -8.2074  -7.5559  -7.0734  -6.5724  -6.0382  -5.6553  -5.3574  -5.0322
    -4.8925  -4.7159  -4.5154  -4.2849  -4.1920  -4.0183  -3.5598  -3.2982
    -2.7657  -2.4131  -2.3605  -2.2580  -2.1740  -2.1207  -2.0644  -1.6549
    -1.5496  -1.2877  -1.0833  -0.9518  -0.5293  -0.0163   0.0878   0.1376
     0.3221   0.5364   0.9472   1.0480   1.1936   1.2264   1.2698   1.4009
     1.5163   1.6268   1.8919   1.9068   2.1536   2.6463   2.6995   2.9072
     3.0031   3.4966   3.6602   3.7224   3.7787   3.9332   4.0447   4.1573
     4.2270   4.4335   4.5818   4.8335   4.9736   5.0137   5.1987   5.2785
     5.4408   5.5894   5.6477   5.7278   5.8305   6.0220   6.0867   6.1564
     6.2003   6.2607   6.3130   6.4268   6.4862   6.6454   6.6538   6.8109
     6.9054   6.9852   7.0526   7.1434   7.2719   7.4182   7.5394   7.6812
     7.9039   7.9156   7.9717   8.0905   8.2008   8.2313   8.2918   8.3082
     8.3961   8.4725   8.5856   8.6206   8.7703   8.7952   8.9278   8.9853
     9.1115   9.1613   9.2663   9.3620   9.4707   9.5303   9.5431   9.7041
     9.7551   9.8171   9.9756  10.0694  10.1111  10.1393  10.5449  10.9508
    10.9804  11.1936  11.5157  11.7401  12.3556  14.0972  15.5776  15.8752
    18.0415  18.2078  18.2806  18.3308  18.3819  18.8089  18.9422  19.1141
    19.1351  19.2896  19.3868  19.5074  19.7179  19.8656  19.8928  20.0475
    20.2526  20.3617  20.4292  20.5238  20.5566  20.6055  20.6592  20.7034

     occupation numbers 
     1.0000   1.0000   1.0000   1.0000   1.0000   1.0000   1.0000   1.0000
     1.0000   1.0000   1.0000   1.0000   1.0000   1.0000   1.0000   1.0000
     1.0000   1.0000   1.0000   1.0000   1.0000   1.0000   1.0000   1.0000
     1.0000   1.0000   1.0000   1.0000   1.0000   1.0000   1.0000   1.0000
     1.0000   1.0000   1.0000   1.0000   1.0000   1.0000   1.0000   1.0000
     1.0000   1.0000   1.0000   1.0000   1.0000   1.0000   1.0000   1.0000
     1.0000   1.0000   1.0000   1.0000   1.0000   1.0000   1.0000   1.0000
     1.0000   1.0000   1.0000   1.0000   1.0000   1.0000   1.0000   1.0000
     1.0000   1.0000   1.0000   1.0000   1.0000   1.0000   1.0000   1.0000
     1.0000   1.0000   1.0000   1.0000   1.0000   1.0000   1.0000   1.0000
     1.0000   1.0000   1.0000   1.0000   1.0000   1.0000   1.0000   1.0000
     1.0000   1.0000   1.0000   1.0000   1.0000   1.0000   1.0000   1.0000
     1.0000   1.0000   1.0000   1.0000   1.0000   1.0000   1.0000   1.0000
     1.0000   1.0000   1.0000   1.0000   1.0000   1.0000   1.0000   1.0000
     1.0000   1.0000   1.0000   1.0000   1.0000   1.0000   1.0000   1.0000
     1.0000   1.0000   1.0000   1.0000   1.0000   0.0000   1.0000   0.0000
     0.0000   0.0000   0.0000   0.0000   0.0000   0.0000   0.0000   0.0000
     0.0000   0.0000   0.0000   0.0000   0.0000   0.0000   0.0000   0.0000
     0.0000   0.0000   0.0000   0.0000   0.0000   0.0000   0.0000   0.0000

          k = 0.3333-0.3333 0.3333 ( 24303 PWs)   bands (ev):

    -8.0451  -7.4054  -6.9519  -6.8016  -6.4712  -6.1835  -5.9486  -5.4798
    -4.5451  -4.0127  -3.9248  -3.6832  -3.4092  -3.3470  -3.3130  -3.1586
    -3.0474  -2.8666  -2.6533  -2.3832  -2.0567  -1.8760  -1.8319  -1.7072
    -1.4801  -1.4662  -1.3858  -1.3314  -1.3229  -1.1827  -1.0655   0.0023
     0.7412   0.9093   0.9740   0.9948   1.0957   1.4493   1.7137   1.7956
     1.8816   1.9602   2.0751   2.2861   2.5924   2.6053   2.7057   2.7334
     2.7602   2.8265   2.9445   3.2616   3.5157   4.0090   4.2592   4.3477
     4.7715   4.7892   4.8888   5.0267   5.0318   5.0839   5.2270   5.2786
     5.3006   5.4532   5.4708   5.5458   5.7094   5.8285   5.8828   6.4863
     6.6180   6.7348   6.9315   6.9463   6.9823   7.0537   7.0926   7.1261
     7.1895   7.2088   7.2552   7.2876   7.3051   7.3515   7.3780   7.3864
     7.4193   7.4752   7.7651   7.7759   7.8459   7.9484   7.9751   7.9841
     8.1543   8.1889   8.2966   8.3191   8.4144   8.4253   8.4321   8.5648
     8.7253   8.7717   8.9924   9.0222   9.1966   9.5578   9.6354   9.6877
     9.9687  10.4080  10.5483  10.5576  10.6164  10.9674  10.9708  11.2209
    11.2487  11.3371  11.5016  11.7778  11.8138  14.0833  15.6531  15.9851
    18.0936  18.2746  18.3458  18.5479  18.6747  18.7573  19.1685  19.3868
    19.4368  19.5018  19.5339  19.5696  19.6391  19.6475  19.6748  19.7412
    19.7584  19.8089  19.9321  19.9326  20.0071  20.0096  20.0706  20.1824

     occupation numbers 
     1.0000   1.0000   1.0000   1.0000   1.0000   1.0000   1.0000   1.0000
     1.0000   1.0000   1.0000   1.0000   1.0000   1.0000   1.0000   1.0000
     1.0000   1.0000   1.0000   1.0000   1.0000   1.0000   1.0000   1.0000
     1.0000   1.0000   1.0000   1.0000   1.0000   1.0000   1.0000   1.0000
     1.0000   1.0000   1.0000   1.0000   1.0000   1.0000   1.0000   1.0000
     1.0000   1.0000   1.0000   1.0000   1.0000   1.0000   1.0000   1.0000
     1.0000   1.0000   1.0000   1.0000   1.0000   1.0000   1.0000   1.0000
     1.0000   1.0000   1.0000   1.0000   1.0000   1.0000   1.0000   1.0000
     1.0000   1.0000   1.0000   1.0000   1.0000   1.0000   1.0000   1.0000
     1.0000   1.0000   1.0000   1.0000   1.0000   1.0000   1.0000   1.0000
     1.0000   1.0000   1.0000   1.0000   1.0000   1.0000   1.0000   1.0000
     1.0000   1.0000   1.0000   1.0000   1.0000   1.0000   1.0000   1.0000
     1.0000   1.0000   1.0000   1.0000   1.0000   1.0000   1.0000   1.0000
     1.0000   1.0000   1.0000   1.0000   1.0000   1.0000   1.0000   1.0000
     1.0000   1.0000   1.0000   1.0000   1.0000   1.0000   1.0000   1.0000
     1.0000   1.0000   1.0000   1.0000   1.0000   0.0000   1.0000   0.0000
     0.0000   0.0000   0.0000   0.0000   0.0000   0.0000   0.0000   0.0000
     0.0000   0.0000   0.0000   0.0000   0.0000   0.0000   0.0000   0.0000
     0.0000   0.0000   0.0000   0.0000   0.0000   0.0000   0.0000   0.0000

     highest occupied, lowest unoccupied level (ev):    14.9482   13.7132

!    total energy              =    -724.68597377 Ry
     Harris-Foulkes estimate   =    -724.68597286 Ry
     estimated scf accuracy    <       0.00000099 Ry

     The total energy is the sum of the following terms:

     one-electron contribution =     233.05200810 Ry
     hartree contribution      =      69.12967249 Ry
     xc contribution           =    -226.40092907 Ry
     ewald contribution        =    -800.46672529 Ry

     total magnetization       =     2.00 Bohr mag/cell
     absolute magnetization    =     2.20 Bohr mag/cell

     convergence has been achieved in  10 iterations

     Writing output data file di.save
 
     init_run     :      1.30s CPU      1.68s WALL (       1 calls)
     electrons    :     28.64s CPU     29.10s WALL (       1 calls)

     Called by init_run:
     wfcinit      :      0.76s CPU      0.83s WALL (       1 calls)
     wfcinit:atom :      0.00s CPU      0.01s WALL (       2 calls)
     wfcinit:wfcr :      0.71s CPU      0.77s WALL (       2 calls)
     potinit      :      0.09s CPU      0.10s WALL (       1 calls)

     Called by electrons:
     c_bands      :     26.91s CPU     27.32s WALL (      10 calls)
     sum_band     :      1.17s CPU      1.18s WALL (      10 calls)
     v_of_rho     :      0.40s CPU      0.41s WALL (      11 calls)
     v_h          :      0.01s CPU      0.01s WALL (      11 calls)
     v_xc         :      0.39s CPU      0.40s WALL (      11 calls)
     mix_rho      :      0.07s CPU      0.08s WALL (      10 calls)

     Called by c_bands:
     init_us_2    :      0.19s CPU      0.19s WALL (      42 calls)
     cegterg      :     24.29s CPU     24.68s WALL (      20 calls)

     Called by sum_band:

     Called by *egterg:
     h_psi        :      9.31s CPU      9.45s WALL (     145 calls)
     g_psi        :      0.05s CPU      0.05s WALL (     123 calls)
     cdiaghg      :     10.80s CPU     10.84s WALL (     143 calls)
     cegterg:over :      1.86s CPU      1.86s WALL (     123 calls)
     cegterg:upda :      1.40s CPU      1.41s WALL (     123 calls)
     cegterg:last :      0.52s CPU      0.52s WALL (      20 calls)

     Called by h_psi:
     h_psi:pot    :      9.21s CPU      9.34s WALL (     145 calls)
     h_psi:calbec :      2.01s CPU      2.03s WALL (     145 calls)
     vloc_psi     :      5.12s CPU      5.22s WALL (     145 calls)
     add_vuspsi   :      2.08s CPU      2.10s WALL (     145 calls)

     General routines
     calbec       :      2.01s CPU      2.02s WALL (     145 calls)
     fft          :      0.13s CPU      0.34s WALL (     228 calls)
     fftw         :      5.44s CPU      5.46s WALL (   20458 calls)
 
     Parallel routines
     fft_scatter  :      1.67s CPU      1.64s WALL (   20686 calls)
 
     PWSCF        :    32.80s CPU        36.18s WALL

 
   This run was terminated on:  10:29:52  12May2020            

=------------------------------------------------------------------------------=
   JOB DONE.
=------------------------------------------------------------------------------=
