
     Program PWSCF v.6.1 (svn rev. 13369) starts on 28Apr2020 at 22:10:12 

     This program is part of the open-source Quantum ESPRESSO suite
     for quantum simulation of materials; please cite
         "P. Giannozzi et al., J. Phys.:Condens. Matter 21 395502 (2009);
          URL http://www.quantum-espresso.org", 
     in publications or presentations arising from this work. More details at
     http://www.quantum-espresso.org/quote

     Parallel version (MPI), running on    32 processors
     K-points division:     npool     =       2
     R & G space division:  proc/nbgrp/npool/nimage =      16
     Reading input from scf.in
Warning: card &IONS ignored
Warning: card / ignored

     Current dimensions of program PWSCF are:
     Max number of different atomic species (ntypx) = 10
     Max number of k-points (npk) =  40000
     Max angular momentum in pseudopotentials (lmaxx) =  3

     Subspace diagonalization in iterative solution of the eigenvalue problem:
     one sub-group per band group will be used
     scalapack distributed-memory algorithm (size of sub-group:  4*  4 procs)

 
     Parallelization info
     --------------------
     sticks:   dense  smooth     PW     G-vecs:    dense   smooth      PW
     Min         766     766    191                91100    91100   11396
     Max         767     767    193                91105    91105   11399
     Sum       12259   12259   3067              1457633  1457633  182351
 


     bravais-lattice index     =            0
     lattice parameter (alat)  =      28.4285  a.u.
     unit-cell volume          =   26452.5957 (a.u.)^3
     number of atoms/cell      =           71
     number of atomic types    =            2
     number of electrons       =       285.00
     number of Kohn-Sham states=          151
     kinetic-energy cutoff     =      55.0000  Ry
     charge density cutoff     =     220.0000  Ry
     convergence threshold     =      1.0E-06
     mixing beta               =       0.7000
     number of iterations used =            8  plain     mixing
     Exchange-correlation      = PBE ( 1  4  3  4 0 0)

     celldm(1)=  28.428530  celldm(2)=   0.000000  celldm(3)=   0.000000
     celldm(4)=   0.000000  celldm(5)=   0.000000  celldm(6)=   0.000000

     crystal axes: (cart. coord. in units of alat)
               a(1) = (   1.000000   0.000000   0.000000 )  
               a(2) = (  -0.500000   0.866025   0.000000 )  
               a(3) = (   0.000000   0.000000   1.329458 )  

     reciprocal axes: (cart. coord. in units 2 pi/alat)
               b(1) = (  1.000000  0.577350  0.000000 )  
               b(2) = (  0.000000  1.154701  0.000000 )  
               b(3) = (  0.000000  0.000000  0.752187 )  


     PseudoPot. # 1 for B  read from file:
     /home/tjsmart/Pseudo/B_ONCV_PBE-1.0.upf
     MD5 check sum: a9fd2462c33df863cd3ce8a66ea40380
     Pseudo is Norm-conserving, Zval =  3.0
     Generated using ONCVPSP code by D. R. Hamann
     Using radial grid of 1534 points,  4 beta functions with: 
                l(1) =   0
                l(2) =   0
                l(3) =   1
                l(4) =   1

     PseudoPot. # 2 for N  read from file:
     /home/tjsmart/Pseudo/N_ONCV_PBE-1.0.upf
     MD5 check sum: 09890da6b2972017450f7114a6086fad
     Pseudo is Norm-conserving, Zval =  5.0
     Generated using ONCVPSP code by D. R. Hamann
     Using radial grid of 1058 points,  4 beta functions with: 
                l(1) =   0
                l(2) =   0
                l(3) =   1
                l(4) =   1

     atomic species   valence    mass     pseudopotential
        B              3.00    10.81100     B ( 1.00)
        N              5.00    14.00670     N ( 1.00)

     Starting magnetic structure 
     atomic species   magnetization
        B            0.500
        N            0.500

      2 Sym. Ops. (no inversion) found



   Cartesian axes

     site n.     atom                  positions (alat units)
         1           B   tau(   1) = (   0.0847068   0.0482161   0.0000000  )
         2           B   tau(   2) = (   0.0017909   0.1915592   0.0000000  )
         3           B   tau(   3) = (  -0.0839943   0.3354489   0.0000000  )
         4           B   tau(   4) = (  -0.1697469   0.4797787   0.0000000  )
         5           B   tau(   5) = (  -0.2531910   0.6240083   0.0000000  )
         6           B   tau(   6) = (  -0.3348606   0.7684704   0.0000000  )
         7           B   tau(   7) = (   0.2504625   0.0503067   0.0000000  )
         8           B   tau(   8) = (   0.1709014   0.1983861   0.0000000  )
         9           B   tau(   9) = (   0.0818328   0.3375502   0.0000000  )
        10           B   tau(  10) = (  -0.0043029   0.4809543   0.0000000  )
        11           B   tau(  11) = (  -0.0868715   0.6252928   0.0000000  )
        12           B   tau(  12) = (  -0.1688995   0.7700034   0.0000000  )
        13           B   tau(  13) = (   0.4160336   0.0489463   0.0000000  )
        14           B   tau(  14) = (   0.3353401   0.1981005   0.0000000  )
        15           B   tau(  15) = (   0.2533787   0.3550106   0.0000000  )
        16           B   tau(  16) = (   0.1596380   0.4829658   0.0000000  )
        17           B   tau(  17) = (   0.0794122   0.6259551   0.0000000  )
        18           B   tau(  18) = (  -0.0022916   0.7698292   0.0000000  )
        19           B   tau(  19) = (   0.5842368   0.0455596   0.0000000  )
        20           B   tau(  20) = (   0.5051758   0.1889664   0.0000000  )
        21           N   tau(  21) = (   0.4231423   0.3308528   0.0000000  )
        22           B   tau(  22) = (   0.3173261   0.4658051   0.0000000  )
        23           B   tau(  23) = (   0.2466538   0.6230660   0.0000000  )
        24           B   tau(  24) = (   0.1656028   0.7677601   0.0000000  )
        25           B   tau(  25) = (   0.7515774   0.0443831   0.0000000  )
        26           B   tau(  26) = (   0.6704078   0.1880795   0.0000000  )
        27           B   tau(  27) = (   0.5870120   0.3307061   0.0000000  )
        28           B   tau(  28) = (   0.4942024   0.4732772   0.0000000  )
        29           B   tau(  29) = (   0.4117236   0.6155503   0.0000000  )
        30           B   tau(  30) = (   0.3330731   0.7653623   0.0000000  )
        31           B   tau(  31) = (   0.9178945   0.0451816   0.0000000  )
        32           B   tau(  32) = (   0.8354579   0.1896735   0.0000000  )
        33           B   tau(  33) = (   0.7507532   0.3339742   0.0000000  )
        34           B   tau(  34) = (   0.6637192   0.4779490   0.0000000  )
        35           B   tau(  35) = (   0.5797567   0.6206408   0.0000000  )
        36           B   tau(  36) = (   0.4986931   0.7652741   0.0000000  )
        37           N   tau(  37) = (   0.0009855   0.0949362   0.0000000  )
        38           N   tau(  38) = (  -0.0820939   0.2389531   0.0000000  )
        39           N   tau(  39) = (  -0.1675071   0.3833039   0.0000000  )
        40           N   tau(  40) = (  -0.2535299   0.5273997   0.0000000  )
        41           N   tau(  41) = (  -0.3367908   0.6711359   0.0000000  )
        42           N   tau(  42) = (  -0.4177388   0.8163917   0.0000000  )
        43           N   tau(  43) = (   0.1683441   0.0996680   0.0000000  )
        44           N   tau(  44) = (   0.0846857   0.2414682   0.0000000  )
        45           N   tau(  45) = (  -0.0022228   0.3847180   0.0000000  )
        46           N   tau(  46) = (  -0.0873647   0.5289366   0.0000000  )
        47           N   tau(  47) = (  -0.1700630   0.6733390   0.0000000  )
        48           N   tau(  48) = (  -0.2515485   0.8187767   0.0000000  )
        49           N   tau(  49) = (   0.3340745   0.1001601   0.0000000  )
        50           N   tau(  50) = (   0.2554502   0.2521445   0.0000000  )
        51           N   tau(  51) = (   0.1627547   0.3876001   0.0000000  )
        52           N   tau(  52) = (   0.0775300   0.5303439   0.0000000  )
        53           N   tau(  53) = (  -0.0036739   0.6739118   0.0000000  )
        54           N   tau(  54) = (  -0.0853875   0.8185846   0.0000000  )
        55           N   tau(  55) = (   0.5012030   0.0940836   0.0000000  )
        56           N   tau(  56) = (   0.4243437   0.2403429   0.0000000  )
        57           N   tau(  57) = (   0.2437814   0.5279936   0.0000000  )
        58           N   tau(  58) = (   0.1637921   0.6722602   0.0000000  )
        59           N   tau(  59) = (   0.0823642   0.8161455   0.0000000  )
        60           N   tau(  60) = (   0.6684588   0.0924792   0.0000000  )
        61           N   tau(  61) = (   0.5877605   0.2357516   0.0000000  )
        62           N   tau(  62) = (   0.5021218   0.3750670   0.0000000  )
        63           N   tau(  63) = (   0.4074962   0.5155061   0.0000000  )
        64           N   tau(  64) = (   0.3312656   0.6686499   0.0000000  )
        65           N   tau(  65) = (   0.2501527   0.8143697   0.0000000  )
        66           N   tau(  66) = (   0.8347348   0.0932277   0.0000000  )
        67           N   tau(  67) = (   0.7522321   0.2375920   0.0000000  )
        68           N   tau(  68) = (   0.6671871   0.3815980   0.0000000  )
        69           N   tau(  69) = (   0.5783762   0.5232938   0.0000000  )
        70           N   tau(  70) = (   0.4959585   0.6671042   0.0000000  )
        71           N   tau(  71) = (   0.4163236   0.8143596   0.0000000  )

     number of k points=     1
                       cart. coord. in units 2pi/alat
        k(    1) = (   0.0000000   0.0000000   0.0000000), wk =   1.0000000

     Dense  grid:  1457633 G-vectors     FFT dimensions: ( 135, 135, 180)

     Occupations read from input 

      Spin-up

        1.0000   1.0000   1.0000   1.0000   1.0000   1.0000   1.0000   1.0000
        1.0000   1.0000   1.0000   1.0000   1.0000   1.0000   1.0000   1.0000
        1.0000   1.0000   1.0000   1.0000   1.0000   1.0000   1.0000   1.0000
        1.0000   1.0000   1.0000   1.0000   1.0000   1.0000   1.0000   1.0000
        1.0000   1.0000   1.0000   1.0000   1.0000   1.0000   1.0000   1.0000
        1.0000   1.0000   1.0000   1.0000   1.0000   1.0000   1.0000   1.0000
        1.0000   1.0000   1.0000   1.0000   1.0000   1.0000   1.0000   1.0000
        1.0000   1.0000   1.0000   1.0000   1.0000   1.0000   1.0000   1.0000
        1.0000   1.0000   1.0000   1.0000   1.0000   1.0000   1.0000   1.0000
        1.0000   1.0000   1.0000   1.0000   1.0000   1.0000   1.0000   1.0000
        1.0000   1.0000   1.0000   1.0000   1.0000   1.0000   1.0000   1.0000
        1.0000   1.0000   1.0000   1.0000   1.0000   1.0000   1.0000   1.0000
        1.0000   1.0000   1.0000   1.0000   1.0000   1.0000   1.0000   1.0000
        1.0000   1.0000   1.0000   1.0000   1.0000   1.0000   1.0000   1.0000
        1.0000   1.0000   1.0000   1.0000   1.0000   1.0000   1.0000   1.0000
        1.0000   1.0000   1.0000   1.0000   1.0000   1.0000   1.0000   1.0000
        1.0000   1.0000   1.0000   1.0000   1.0000   1.0000   1.0000   1.0000
        1.0000   1.0000   1.0000   1.0000   1.0000   1.0000   0.0000   1.0000
        0.0000   0.0000   0.0000   0.0000   0.0000   0.0000   0.0000

      Spin-down

        1.0000   1.0000   1.0000   1.0000   1.0000   1.0000   1.0000   1.0000
        1.0000   1.0000   1.0000   1.0000   1.0000   1.0000   1.0000   1.0000
        1.0000   1.0000   1.0000   1.0000   1.0000   1.0000   1.0000   1.0000
        1.0000   1.0000   1.0000   1.0000   1.0000   1.0000   1.0000   1.0000
        1.0000   1.0000   1.0000   1.0000   1.0000   1.0000   1.0000   1.0000
        1.0000   1.0000   1.0000   1.0000   1.0000   1.0000   1.0000   1.0000
        1.0000   1.0000   1.0000   1.0000   1.0000   1.0000   1.0000   1.0000
        1.0000   1.0000   1.0000   1.0000   1.0000   1.0000   1.0000   1.0000
        1.0000   1.0000   1.0000   1.0000   1.0000   1.0000   1.0000   1.0000
        1.0000   1.0000   1.0000   1.0000   1.0000   1.0000   1.0000   1.0000
        1.0000   1.0000   1.0000   1.0000   1.0000   1.0000   1.0000   1.0000
        1.0000   1.0000   1.0000   1.0000   1.0000   1.0000   1.0000   1.0000
        1.0000   1.0000   1.0000   1.0000   1.0000   1.0000   1.0000   1.0000
        1.0000   1.0000   1.0000   1.0000   1.0000   1.0000   1.0000   1.0000
        1.0000   1.0000   1.0000   1.0000   1.0000   1.0000   1.0000   1.0000
        1.0000   1.0000   1.0000   1.0000   1.0000   1.0000   1.0000   1.0000
        1.0000   1.0000   1.0000   1.0000   1.0000   1.0000   1.0000   1.0000
        1.0000   1.0000   1.0000   1.0000   1.0000   1.0000   0.0000   0.0000
        0.0000   0.0000   0.0000   0.0000   0.0000   0.0000   0.0000

     Estimated max dynamical RAM per process >     320.92MB

     Estimated total allocated dynamical RAM >   10269.45MB
     Generating pointlists ...
     new r_m :   0.0391 (alat units)  1.1117 (a.u.) for type    1
     new r_m :   0.0373 (alat units)  1.0614 (a.u.) for type    2

     Initial potential from superposition of free atoms
     Check: negative starting charge=(component1):   -0.003141
     Check: negative starting charge=(component2):   -0.001047

     starting charge  284.99101, renormalised to  285.00000

     negative rho (up, down):  3.141E-03 1.047E-03
     Starting wfc are  284 randomized atomic wfcs

     total cpu time spent up to now is       11.8 secs

     per-process dynamical memory:   237.9 Mb

     Self-consistent Calculation

     iteration #  1     ecut=    55.00 Ry     beta=0.70
     Davidson diagonalization with overlap
     ethr =  1.00E-02,  avg # of iterations =  2.0

     negative rho (up, down):  5.128E-04 1.064E-04

     total cpu time spent up to now is       21.3 secs

     total energy              =    -914.78853054 Ry
     Harris-Foulkes estimate   =    -914.81944860 Ry
     estimated scf accuracy    <      17.07082014 Ry

     total magnetization       =     1.00 Bohr mag/cell
     absolute magnetization    =    10.44 Bohr mag/cell

     iteration #  2     ecut=    55.00 Ry     beta=0.70
     Davidson diagonalization with overlap
     ethr =  5.99E-03,  avg # of iterations =  3.5

     negative rho (up, down):  2.491E-04 3.305E-05

     total cpu time spent up to now is       31.7 secs

     total energy              =    -916.56446869 Ry
     Harris-Foulkes estimate   =    -922.29462869 Ry
     estimated scf accuracy    <      12.22613797 Ry

     total magnetization       =     1.00 Bohr mag/cell
     absolute magnetization    =     4.63 Bohr mag/cell

     iteration #  3     ecut=    55.00 Ry     beta=0.70
     Davidson diagonalization with overlap
     ethr =  4.29E-03,  avg # of iterations =  5.5

     negative rho (up, down):  1.289E-04 9.972E-06

     total cpu time spent up to now is       41.3 secs

     total energy              =    -918.30649983 Ry
     Harris-Foulkes estimate   =    -921.21193176 Ry
     estimated scf accuracy    <       8.39181785 Ry

     total magnetization       =     1.00 Bohr mag/cell
     absolute magnetization    =     3.84 Bohr mag/cell

     iteration #  4     ecut=    55.00 Ry     beta=0.70
     Davidson diagonalization with overlap
     ethr =  2.94E-03,  avg # of iterations =  5.0

     negative rho (up, down):  1.250E-05 3.515E-08

     total cpu time spent up to now is       49.6 secs

     total energy              =    -920.15150633 Ry
     Harris-Foulkes estimate   =    -920.37144889 Ry
     estimated scf accuracy    <       0.73336189 Ry

     total magnetization       =     1.00 Bohr mag/cell
     absolute magnetization    =     3.36 Bohr mag/cell

     iteration #  5     ecut=    55.00 Ry     beta=0.70
     Davidson diagonalization with overlap
     ethr =  2.57E-04,  avg # of iterations =  7.5

     negative rho (up, down):  1.149E-07 0.000E+00

     total cpu time spent up to now is       60.2 secs

     total energy              =    -920.00740623 Ry
     Harris-Foulkes estimate   =    -920.70442890 Ry
     estimated scf accuracy    <       3.14424893 Ry

     total magnetization       =     1.00 Bohr mag/cell
     absolute magnetization    =     2.21 Bohr mag/cell

     iteration #  6     ecut=    55.00 Ry     beta=0.70
     Davidson diagonalization with overlap
     ethr =  2.57E-04,  avg # of iterations =  5.5

     total cpu time spent up to now is       68.9 secs

     total energy              =    -920.42336708 Ry
     Harris-Foulkes estimate   =    -920.49019428 Ry
     estimated scf accuracy    <       0.23084370 Ry

     total magnetization       =     1.00 Bohr mag/cell
     absolute magnetization    =     2.01 Bohr mag/cell

     iteration #  7     ecut=    55.00 Ry     beta=0.70
     Davidson diagonalization with overlap
     ethr =  8.10E-05,  avg # of iterations =  3.5

     total cpu time spent up to now is       76.5 secs

     total energy              =    -920.43337012 Ry
     Harris-Foulkes estimate   =    -920.44558576 Ry
     estimated scf accuracy    <       0.07299887 Ry

     total magnetization       =     1.00 Bohr mag/cell
     absolute magnetization    =     1.73 Bohr mag/cell

     iteration #  8     ecut=    55.00 Ry     beta=0.70
     Davidson diagonalization with overlap
     ethr =  2.56E-05,  avg # of iterations = 11.5

     total cpu time spent up to now is       86.8 secs

     total energy              =    -920.43189429 Ry
     Harris-Foulkes estimate   =    -920.43884305 Ry
     estimated scf accuracy    <       0.03844204 Ry

     total magnetization       =     1.00 Bohr mag/cell
     absolute magnetization    =     1.39 Bohr mag/cell

     iteration #  9     ecut=    55.00 Ry     beta=0.70
     Davidson diagonalization with overlap
     ethr =  1.35E-05,  avg # of iterations = 10.0

     total cpu time spent up to now is       96.4 secs

     total energy              =    -920.43050753 Ry
     Harris-Foulkes estimate   =    -920.43432365 Ry
     estimated scf accuracy    <       0.01694785 Ry

     total magnetization       =     1.00 Bohr mag/cell
     absolute magnetization    =     1.28 Bohr mag/cell

     iteration # 10     ecut=    55.00 Ry     beta=0.70
     Davidson diagonalization with overlap
     ethr =  5.95E-06,  avg # of iterations =  4.5

     total cpu time spent up to now is      104.4 secs

     total energy              =    -920.43019864 Ry
     Harris-Foulkes estimate   =    -920.43160528 Ry
     estimated scf accuracy    <       0.00629577 Ry

     total magnetization       =     1.00 Bohr mag/cell
     absolute magnetization    =     1.21 Bohr mag/cell

     iteration # 11     ecut=    55.00 Ry     beta=0.70
     Davidson diagonalization with overlap
     ethr =  2.21E-06,  avg # of iterations =  9.0

     total cpu time spent up to now is      113.0 secs

     total energy              =    -920.42988582 Ry
     Harris-Foulkes estimate   =    -920.43061572 Ry
     estimated scf accuracy    <       0.00226423 Ry

     total magnetization       =     1.00 Bohr mag/cell
     absolute magnetization    =     1.19 Bohr mag/cell

     iteration # 12     ecut=    55.00 Ry     beta=0.70
     Davidson diagonalization with overlap
     ethr =  7.94E-07,  avg # of iterations =  4.5

     total cpu time spent up to now is      121.3 secs

     total energy              =    -920.43004171 Ry
     Harris-Foulkes estimate   =    -920.43020020 Ry
     estimated scf accuracy    <       0.00027901 Ry

     total magnetization       =     1.00 Bohr mag/cell
     absolute magnetization    =     1.19 Bohr mag/cell

     iteration # 13     ecut=    55.00 Ry     beta=0.70
     Davidson diagonalization with overlap
     ethr =  9.79E-08,  avg # of iterations =  5.0

     total cpu time spent up to now is      132.4 secs

     total energy              =    -920.43017856 Ry
     Harris-Foulkes estimate   =    -920.43025912 Ry
     estimated scf accuracy    <       0.00017668 Ry

     total magnetization       =     1.00 Bohr mag/cell
     absolute magnetization    =     1.23 Bohr mag/cell

     iteration # 14     ecut=    55.00 Ry     beta=0.70
     Davidson diagonalization with overlap
     ethr =  6.20E-08,  avg # of iterations =  4.0

     total cpu time spent up to now is      140.5 secs

     total energy              =    -920.43021324 Ry
     Harris-Foulkes estimate   =    -920.43021271 Ry
     estimated scf accuracy    <       0.00001006 Ry

     total magnetization       =     1.00 Bohr mag/cell
     absolute magnetization    =     1.22 Bohr mag/cell

     iteration # 15     ecut=    55.00 Ry     beta=0.70
     Davidson diagonalization with overlap
     ethr =  3.53E-09,  avg # of iterations =  5.0

     total cpu time spent up to now is      150.1 secs

     total energy              =    -920.43021823 Ry
     Harris-Foulkes estimate   =    -920.43021764 Ry
     estimated scf accuracy    <       0.00000523 Ry

     total magnetization       =     1.00 Bohr mag/cell
     absolute magnetization    =     1.23 Bohr mag/cell

     iteration # 16     ecut=    55.00 Ry     beta=0.70
     Davidson diagonalization with overlap
     ethr =  1.84E-09,  avg # of iterations =  4.0
 
     Magnetic moment per site:
     atom:    1    charge:    0.8224    magn:    0.0008    constr:    0.0000
     atom:    2    charge:    0.8366    magn:    0.0010    constr:    0.0000
     atom:    3    charge:    0.8464    magn:    0.0000    constr:    0.0000
     atom:    4    charge:    0.8435    magn:    0.0010    constr:    0.0000
     atom:    5    charge:    0.8394    magn:    0.0003    constr:    0.0000
     atom:    6    charge:    0.8338    magn:    0.0037    constr:    0.0000
     atom:    7    charge:    0.8313    magn:    0.0014    constr:    0.0000
     atom:    8    charge:    0.8021    magn:    0.0026    constr:    0.0000
     atom:    9    charge:    0.8532    magn:    0.0063    constr:    0.0000
     atom:   10    charge:    0.8523    magn:    0.0051    constr:    0.0000
     atom:   11    charge:    0.8441    magn:    0.0016    constr:    0.0000
     atom:   12    charge:    0.8409    magn:    0.0003    constr:    0.0000
     atom:   13    charge:    0.8392    magn:    0.0006    constr:    0.0000
     atom:   14    charge:    0.8225    magn:    0.0113    constr:    0.0000
     atom:   15    charge:    0.7543    magn:    0.0628    constr:    0.0000
     atom:   16    charge:    0.8739    magn:    0.0199    constr:    0.0000
     atom:   17    charge:    0.8519    magn:    0.0051    constr:    0.0000
     atom:   18    charge:    0.8440    magn:    0.0010    constr:    0.0000
     atom:   19    charge:    0.8485    magn:    0.0004    constr:    0.0000
     atom:   20    charge:    0.8723    magn:    0.0039    constr:    0.0000
     atom:   21    charge:    2.3994    magn:    0.0206    constr:    0.0000
     atom:   22    charge:    0.7542    magn:    0.0629    constr:    0.0000
     atom:   23    charge:    0.8532    magn:    0.0063    constr:    0.0000
     atom:   24    charge:    0.8470    magn:    0.0000    constr:    0.0000
     atom:   25    charge:    0.8462    magn:    0.0003    constr:    0.0000
     atom:   26    charge:    0.8596    magn:    0.0022    constr:    0.0000
     atom:   27    charge:    0.8726    magn:    0.0039    constr:    0.0000
     atom:   28    charge:    0.8226    magn:    0.0113    constr:    0.0000
     atom:   29    charge:    0.8024    magn:    0.0026    constr:    0.0000
     atom:   30    charge:    0.8353    magn:    0.0010    constr:    0.0000
     atom:   31    charge:    0.8377    magn:    0.0037    constr:    0.0000
     atom:   32    charge:    0.8460    magn:    0.0003    constr:    0.0000
     atom:   33    charge:    0.8489    magn:    0.0004    constr:    0.0000
     atom:   34    charge:    0.8377    magn:    0.0006    constr:    0.0000
     atom:   35    charge:    0.8312    magn:    0.0014    constr:    0.0000
     atom:   36    charge:    0.8220    magn:    0.0008    constr:    0.0000
     atom:   37    charge:    2.5541    magn:   -0.0011    constr:    0.0000
     atom:   38    charge:    2.5591    magn:    0.0025    constr:    0.0000
     atom:   39    charge:    2.5627    magn:    0.0002    constr:    0.0000
     atom:   40    charge:    2.5505    magn:   -0.0006    constr:    0.0000
     atom:   41    charge:    2.5432    magn:   -0.0009    constr:    0.0000
     atom:   42    charge:    2.5367    magn:   -0.0012    constr:    0.0000
     atom:   43    charge:    2.5335    magn:   -0.0014    constr:    0.0000
     atom:   44    charge:    2.5566    magn:    0.0019    constr:    0.0000
     atom:   45    charge:    2.5583    magn:   -0.0023    constr:    0.0000
     atom:   46    charge:    2.5593    magn:   -0.0012    constr:    0.0000
     atom:   47    charge:    2.5526    magn:   -0.0005    constr:    0.0000
     atom:   48    charge:    2.5428    magn:   -0.0009    constr:    0.0000
     atom:   49    charge:    2.5358    magn:   -0.0026    constr:    0.0000
     atom:   50    charge:    2.4893    magn:   -0.0078    constr:    0.0000
     atom:   51    charge:    2.5656    magn:   -0.0090    constr:    0.0000
     atom:   52    charge:    2.5690    magn:   -0.0053    constr:    0.0000
     atom:   53    charge:    2.5526    magn:   -0.0012    constr:    0.0000
     atom:   54    charge:    2.5566    magn:   -0.0006    constr:    0.0000
     atom:   55    charge:    2.5622    magn:    0.0008    constr:    0.0000
     atom:   56    charge:    2.5224    magn:   -0.0016    constr:    0.0000
     atom:   57    charge:    2.5630    magn:   -0.0090    constr:    0.0000
     atom:   58    charge:    2.5621    magn:   -0.0023    constr:    0.0000
     atom:   59    charge:    2.5616    magn:    0.0002    constr:    0.0000
     atom:   60    charge:    2.5601    magn:    0.0003    constr:    0.0000
     atom:   61    charge:    2.5701    magn:    0.0003    constr:    0.0000
     atom:   62    charge:    2.5227    magn:   -0.0016    constr:    0.0000
     atom:   63    charge:    2.4906    magn:   -0.0078    constr:    0.0000
     atom:   64    charge:    2.5525    magn:    0.0019    constr:    0.0000
     atom:   65    charge:    2.5537    magn:    0.0025    constr:    0.0000
     atom:   66    charge:    2.5549    magn:   -0.0009    constr:    0.0000
     atom:   67    charge:    2.5538    magn:    0.0003    constr:    0.0000
     atom:   68    charge:    2.5649    magn:    0.0008    constr:    0.0000
     atom:   69    charge:    2.5367    magn:   -0.0026    constr:    0.0000
     atom:   70    charge:    2.5266    magn:   -0.0014    constr:    0.0000
     atom:   71    charge:    2.5507    magn:   -0.0011    constr:    0.0000

     total cpu time spent up to now is      159.2 secs

     End of self-consistent calculation

 ------ SPIN UP ------------


          k = 0.0000 0.0000 0.0000 (182351 PWs)   bands (ev):

   -25.9033 -22.2140 -21.9157 -21.4459 -21.3139 -21.2351 -21.0691 -20.9462
   -20.6220 -20.5510 -20.3674 -20.1824 -20.1651 -20.1060 -19.9955 -19.8389
   -19.6814 -19.6758 -19.5426 -19.4038 -19.2202 -19.0309 -18.9578 -18.8960
   -18.8856 -18.8108 -18.7240 -18.6265 -18.6062 -18.5868 -18.5251 -18.3855
   -18.3000 -18.1295 -17.7053 -16.7491 -13.9658 -13.7775 -13.1747 -12.8995
   -12.7251 -12.5152 -12.3420 -12.3308 -12.2883 -12.1620 -12.1052 -12.0524
   -12.0445 -12.0269 -11.8669 -11.8642 -11.5969 -11.5013 -11.3362 -11.2022
   -11.0735 -11.0317 -10.8740 -10.8535 -10.8013 -10.5354 -10.2877 -10.0839
   -10.0789  -9.8644  -9.8352  -9.6912  -9.6322  -9.5720  -9.5697  -9.4711
    -9.4127  -9.3906  -9.3080  -9.2924  -9.2671  -9.2370  -9.0238  -8.9560
    -8.9217  -8.8405  -8.8090  -8.6058  -8.5093  -8.4386  -8.4189  -8.3487
    -8.3134  -8.2371  -8.1457  -8.1160  -8.0781  -8.0408  -7.9711  -7.9243
    -7.8370  -7.8129  -7.7401  -7.6918  -7.6546  -7.5457  -7.5158  -7.4849
    -7.3858  -7.3666  -7.2249  -7.2163  -7.1844  -7.1707  -6.9298  -6.9287
    -6.8559  -6.7873  -6.7314  -6.5873  -6.5590  -6.5327  -6.4846  -6.3519
    -6.3437  -6.1773  -6.1699  -5.9527  -5.6487  -5.5582  -5.5481  -5.4777
    -5.4348  -5.3154  -5.2586  -5.2365  -5.1720  -5.0691  -5.0216  -4.9681
    -4.9454  -4.7875  -4.6511  -4.2771  -3.9590  -3.2968  -3.0989  -0.0864
     0.2282   0.5001   0.5015   0.5509   0.5840   0.8639   1.0076

 ------ SPIN DOWN ----------


          k = 0.0000 0.0000 0.0000 (182351 PWs)   bands (ev):

   -25.8790 -22.2090 -21.9116 -21.4428 -21.3119 -21.2320 -21.0654 -20.9433
   -20.6138 -20.5477 -20.3644 -20.1796 -20.1600 -20.1038 -19.9932 -19.8356
   -19.6762 -19.6717 -19.5351 -19.3992 -19.2159 -19.0292 -18.9497 -18.8943
   -18.8841 -18.8097 -18.7223 -18.6245 -18.6027 -18.5867 -18.5206 -18.3809
   -18.3005 -18.1275 -17.7044 -16.7276 -13.9551 -13.7661 -13.1708 -12.8926
   -12.7162 -12.5085 -12.3331 -12.3264 -12.2806 -12.1593 -12.0914 -12.0474
   -12.0317 -12.0241 -11.8601 -11.8489 -11.5872 -11.4900 -11.3080 -11.1958
   -11.0589 -11.0225 -10.8460 -10.8394 -10.7492 -10.5174 -10.2570 -10.0784
   -10.0700  -9.8539  -9.8318  -9.6821  -9.6276  -9.5676  -9.5622  -9.4588
    -9.4084  -9.3780  -9.3026  -9.2789  -9.2566  -9.2213  -9.0060  -8.9402
    -8.9112  -8.8264  -8.7872  -8.5939  -8.4908  -8.4331  -8.3911  -8.3425
    -8.2993  -8.2335  -8.1414  -8.1104  -8.0761  -8.0157  -7.9695  -7.9174
    -7.8239  -7.7665  -7.7386  -7.6896  -7.6523  -7.5423  -7.4982  -7.4816
    -7.3820  -7.3509  -7.2134  -7.2024  -7.1613  -7.1559  -6.9203  -6.9128
    -6.8490  -6.7735  -6.7158  -6.5617  -6.5574  -6.4959  -6.4643  -6.3512
    -6.2780  -6.1705  -6.1623  -5.9397  -5.6061  -5.5550  -5.5118  -5.4622
    -5.4219  -5.3069  -5.2499  -5.2316  -5.1651  -5.0575  -5.0056  -4.9472
    -4.9305  -4.7796  -4.6052  -4.2467  -3.9380  -3.0576  -2.9968   0.2849
     0.4914   0.5264   0.5360   0.6290   0.6793   0.9587   1.0456

     highest occupied, lowest unoccupied level (ev):    -3.0576   -3.0989

!    total energy              =    -920.43022050 Ry
     Harris-Foulkes estimate   =    -920.43021996 Ry
     estimated scf accuracy    <       0.00000095 Ry

     The total energy is the sum of the following terms:

     one-electron contribution =   -7780.67504545 Ry
     hartree contribution      =    3942.23088999 Ry
     xc contribution           =    -262.12567207 Ry
     ewald contribution        =    3180.13960702 Ry

     total magnetization       =     1.00 Bohr mag/cell
     absolute magnetization    =     1.24 Bohr mag/cell

     convergence has been achieved in  16 iterations

     Writing output data file BN.save
 
     init_run     :      7.86s CPU      8.36s WALL (       1 calls)
     electrons    :    145.93s CPU    147.79s WALL (       1 calls)

     Called by init_run:
     wfcinit      :      4.33s CPU      4.42s WALL (       1 calls)
     potinit      :      1.07s CPU      1.12s WALL (       1 calls)

     Called by electrons:
     c_bands      :    120.08s CPU    121.39s WALL (      16 calls)
     sum_band     :     16.41s CPU     16.55s WALL (      16 calls)
     v_of_rho     :      6.60s CPU      6.86s WALL (      17 calls)
     mix_rho      :      2.36s CPU      2.45s WALL (      16 calls)

     Called by c_bands:
     init_us_2    :      1.45s CPU      1.48s WALL (      33 calls)
     cegterg      :    112.94s CPU    114.22s WALL (      16 calls)

     Called by sum_band:

     Called by *egterg:
     h_psi        :     85.48s CPU     85.61s WALL (     114 calls)
     g_psi        :      0.30s CPU      0.30s WALL (      97 calls)
     cdiaghg      :      5.21s CPU      5.44s WALL (     113 calls)

     Called by h_psi:
     h_psi:pot    :     84.63s CPU     84.76s WALL (     114 calls)
     h_psi:calbec :     11.99s CPU     12.00s WALL (     114 calls)
     vloc_psi     :     60.10s CPU     60.22s WALL (     114 calls)
     add_vuspsi   :     12.55s CPU     12.54s WALL (     114 calls)

     General routines
     calbec       :     11.99s CPU     11.99s WALL (     114 calls)
     fft          :      2.62s CPU      3.15s WALL (     354 calls)
     fftw         :     55.24s CPU     55.32s WALL (   15376 calls)
 
     Parallel routines
     fft_scatter  :     18.05s CPU     18.43s WALL (   15730 calls)
 
     PWSCF        :  2m37.80s CPU     2m44.48s WALL

 
   This run was terminated on:  22:12:56  28Apr2020            

=------------------------------------------------------------------------------=
   JOB DONE.
=------------------------------------------------------------------------------=
