
     Program PWSCF v.6.1 (svn rev. 13369) starts on 12May2020 at 10:30:42 

     This program is part of the open-source Quantum ESPRESSO suite
     for quantum simulation of materials; please cite
         "P. Giannozzi et al., J. Phys.:Condens. Matter 21 395502 (2009);
          URL http://www.quantum-espresso.org", 
     in publications or presentations arising from this work. More details at
     http://www.quantum-espresso.org/quote

     Parallel version (MPI), running on    96 processors
     K-points division:     npool     =       6
     R & G space division:  proc/nbgrp/npool/nimage =      16
     Reading input from scf.in
Warning: card &IONS ignored
Warning: card / ignored

     Current dimensions of program PWSCF are:
     Max number of different atomic species (ntypx) = 10
     Max number of k-points (npk) =  40000
     Max angular momentum in pseudopotentials (lmaxx) =  3

     Subspace diagonalization in iterative solution of the eigenvalue problem:
     a serial algorithm will be used

 
     Parallelization info
     --------------------
     sticks:   dense  smooth     PW     G-vecs:    dense   smooth      PW
     Min         252     252     67                12125    12125    1669
     Max         254     254     68                12129    12129    1672
     Sum        4049    4049   1085               194039   194039   26745
 


     bravais-lattice index     =            1
     lattice parameter (alat)  =      13.4862  a.u.
     unit-cell volume          =    2452.8358 (a.u.)^3
     number of atoms/cell      =           63
     number of atomic types    =            2
     number of electrons       =       254.00
     number of Kohn-Sham states=          152
     kinetic-energy cutoff     =      70.0000  Ry
     charge density cutoff     =     280.0000  Ry
     convergence threshold     =      1.0E-06
     mixing beta               =       0.5000
     number of iterations used =            8  plain     mixing
     Exchange-correlation      = PBE ( 1  4  3  4 0 0)

     celldm(1)=  13.486197  celldm(2)=   0.000000  celldm(3)=   0.000000
     celldm(4)=   0.000000  celldm(5)=   0.000000  celldm(6)=   0.000000

     crystal axes: (cart. coord. in units of alat)
               a(1) = (   1.000000   0.000000   0.000000 )  
               a(2) = (   0.000000   1.000000   0.000000 )  
               a(3) = (   0.000000   0.000000   1.000000 )  

     reciprocal axes: (cart. coord. in units 2 pi/alat)
               b(1) = (  1.000000  0.000000  0.000000 )  
               b(2) = (  0.000000  1.000000  0.000000 )  
               b(3) = (  0.000000  0.000000  1.000000 )  


     PseudoPot. # 1 for C  read from file:
     /home/tjsmart/Pseudo/C_ONCV_PBE-1.0.upf
     MD5 check sum: 72b63e32b2fd29504de26a4901699f60
     Pseudo is Norm-conserving, Zval =  4.0
     Generated using ONCVPSP code by D. R. Hamann
     Using radial grid of 1248 points,  4 beta functions with: 
                l(1) =   0
                l(2) =   0
                l(3) =   1
                l(4) =   1

     PseudoPot. # 2 for N  read from file:
     /home/tjsmart/Pseudo/N_ONCV_PBE-1.0.upf
     MD5 check sum: 09890da6b2972017450f7114a6086fad
     Pseudo is Norm-conserving, Zval =  5.0
     Generated using ONCVPSP code by D. R. Hamann
     Using radial grid of 1058 points,  4 beta functions with: 
                l(1) =   0
                l(2) =   0
                l(3) =   1
                l(4) =   1

     atomic species   valence    mass     pseudopotential
        C              4.00    12.01110     C ( 1.00)
        N              5.00    14.00670     N ( 1.00)

     Starting magnetic structure 
     atomic species   magnetization
        C            0.500
        N            0.500

      6 Sym. Ops. (no inversion) found


                                    s                        frac. trans.

      isym =  1     identity                                     

 cryst.   s( 1) = (     1          0          0      )
                  (     0          1          0      )
                  (     0          0          1      )

 cart.    s( 1) = (  1.0000000  0.0000000  0.0000000 )
                  (  0.0000000  1.0000000  0.0000000 )
                  (  0.0000000  0.0000000  1.0000000 )


      isym =  2     120 deg rotation - cart. axis [-1,-1,-1]     

 cryst.   s( 2) = (     0          0          1      )
                  (     1          0          0      )
                  (     0          1          0      )

 cart.    s( 2) = (  0.0000000  1.0000000  0.0000000 )
                  (  0.0000000  0.0000000  1.0000000 )
                  (  1.0000000  0.0000000  0.0000000 )


      isym =  3     120 deg rotation - cart. axis [1,1,1]        

 cryst.   s( 3) = (     0          1          0      )
                  (     0          0          1      )
                  (     1          0          0      )

 cart.    s( 3) = (  0.0000000  0.0000000  1.0000000 )
                  (  1.0000000  0.0000000  0.0000000 )
                  (  0.0000000  1.0000000  0.0000000 )


      isym =  4     inv. 180 deg rotation - cart. axis [1,-1,0]  

 cryst.   s( 4) = (     0          1          0      )
                  (     1          0          0      )
                  (     0          0          1      )

 cart.    s( 4) = (  0.0000000  1.0000000  0.0000000 )
                  (  1.0000000  0.0000000  0.0000000 )
                  (  0.0000000  0.0000000  1.0000000 )


      isym =  5     inv. 180 deg rotation - cart. axis [-1,0,1]  

 cryst.   s( 5) = (     0          0          1      )
                  (     0          1          0      )
                  (     1          0          0      )

 cart.    s( 5) = (  0.0000000  0.0000000  1.0000000 )
                  (  0.0000000  1.0000000  0.0000000 )
                  (  1.0000000  0.0000000  0.0000000 )


      isym =  6     inv. 180 deg rotation - cart. axis [0,1,-1]  

 cryst.   s( 6) = (     1          0          0      )
                  (     0          0          1      )
                  (     0          1          0      )

 cart.    s( 6) = (  1.0000000  0.0000000  0.0000000 )
                  (  0.0000000  0.0000000  1.0000000 )
                  (  0.0000000  1.0000000  0.0000000 )


     point group C_3v (3m)  
     there are  3 classes
     the character table:

       E     2C3   3s_v 
A_1    1.00  1.00  1.00
A_2    1.00  1.00 -1.00
E      2.00 -1.00  0.00

     the symmetry operations in each class and the name of the first element:

     E        1
          identity                                               
     2C3      2    3
          120 deg rotation - cart. axis [-1,-1,-1]               
     3s_v     4    5    6
          inv. 180 deg rotation - cart. axis [1,-1,0]            

   Cartesian axes

     site n.     atom                  positions (alat units)
         1           C   tau(   1) = (   0.3757705   0.3757705   0.8735987  )
         2           C   tau(   2) = (   0.5002199   0.0003840   0.0003840  )
         3           C   tau(   3) = (   0.4999962  -0.0003597   0.4999962  )
         4           C   tau(   4) = (   0.0003840   0.5002199   0.0003840  )
         5           C   tau(   5) = (  -0.0003597   0.4999962   0.4999962  )
         6           C   tau(   6) = (  -0.0001200  -0.0001200  -0.0001200  )
         7           C   tau(   7) = (   0.0003840   0.0003840   0.5002199  )
         8           C   tau(   8) = (   0.2504072   0.2504072  -0.0009686  )
         9           C   tau(   9) = (   0.2512387   0.2512387   0.4960307  )
        10           C   tau(  10) = (   0.2502040   0.7491127   0.0008776  )
        11           C   tau(  11) = (   0.2514249   0.7484436   0.5020122  )
        12           C   tau(  12) = (   0.7491127   0.2502040   0.0008776  )
        13           C   tau(  13) = (   0.7484436   0.2514249   0.5020122  )
        14           C   tau(  14) = (   0.7495384   0.7495384  -0.0007156  )
        15           C   tau(  15) = (   0.4999962   0.4999962  -0.0003597  )
        16           C   tau(  16) = (   0.7486769   0.7486769   0.4984125  )
        17           C   tau(  17) = (   0.5020122   0.2514249   0.7484436  )
        18           C   tau(  18) = (   0.5020122   0.7484436   0.2514249  )
        19           C   tau(  19) = (   0.4984125   0.7486769   0.7486769  )
        20           C   tau(  20) = (  -0.0009686   0.2504072   0.2504072  )
        21           C   tau(  21) = (   0.0008776   0.2502040   0.7491127  )
        22           C   tau(  22) = (   0.0008776   0.7491127   0.2502040  )
        23           C   tau(  23) = (  -0.0007156   0.7495384   0.7495384  )
        24           C   tau(  24) = (   0.2512387   0.4960307   0.2512387  )
        25           C   tau(  25) = (   0.2514249   0.5020122   0.7484436  )
        26           C   tau(  26) = (   0.2504072  -0.0009686   0.2504072  )
        27           C   tau(  27) = (   0.2502040   0.0008776   0.7491127  )
        28           C   tau(  28) = (   0.7484436   0.5020122   0.2514249  )
        29           C   tau(  29) = (   0.7486769   0.4984125   0.7486769  )
        30           C   tau(  30) = (   0.4960307   0.2512387   0.2512387  )
        31           C   tau(  31) = (   0.7491127   0.0008776   0.2502040  )
        32           C   tau(  32) = (   0.6243271   0.8738160   0.6243271  )
        33           C   tau(  33) = (   0.6359211   0.3634580   0.6359211  )
        34           C   tau(  34) = (   0.3757296   0.8762176   0.8762176  )
        35           C   tau(  35) = (   0.3757705   0.8735987   0.3757705  )
        36           C   tau(  36) = (   0.8762176   0.3757296   0.8762176  )
        37           C   tau(  37) = (   0.8735987   0.3757705   0.3757705  )
        38           C   tau(  38) = (   0.8745330   0.8745330   0.8745330  )
        39           C   tau(  39) = (   0.8762176   0.8762176   0.3757296  )
        40           C   tau(  40) = (   0.1253729   0.1253729   0.8743888  )
        41           C   tau(  41) = (   0.1244182   0.1244182   0.3748717  )
        42           C   tau(  42) = (   0.1237553   0.6243718   0.8760864  )
        43           C   tau(  43) = (   0.1266863   0.6233579   0.3763697  )
        44           C   tau(  44) = (   0.6243718   0.1237553   0.8760864  )
        45           C   tau(  45) = (   0.6233579   0.1266863   0.3763697  )
        46           C   tau(  46) = (   0.6243718   0.8760864   0.1237553  )
        47           C   tau(  47) = (   0.6243271   0.6243271   0.8738160  )
        48           C   tau(  48) = (   0.3748717   0.1244182   0.1244182  )
        49           C   tau(  49) = (   0.3763697   0.1266863   0.6233579  )
        50           C   tau(  50) = (   0.3763697   0.6233579   0.1266863  )
        51           C   tau(  51) = (   0.3634580   0.6359211   0.6359211  )
        52           C   tau(  52) = (   0.8743888   0.1253729   0.1253729  )
        53           C   tau(  53) = (   0.8760864   0.1237553   0.6243718  )
        54           C   tau(  54) = (   0.8760864   0.6243718   0.1237553  )
        55           C   tau(  55) = (   0.8738160   0.6243271   0.6243271  )
        56           C   tau(  56) = (   0.1244182   0.3748717   0.1244182  )
        57           C   tau(  57) = (   0.1266863   0.3763697   0.6233579  )
        58           C   tau(  58) = (   0.1253729   0.8743888   0.1253729  )
        59           C   tau(  59) = (   0.1237553   0.8760864   0.6243718  )
        60           C   tau(  60) = (   0.6233579   0.3763697   0.1266863  )
        61           C   tau(  61) = (   0.6359211   0.6359211   0.3634580  )
        62           C   tau(  62) = (   0.7495384  -0.0007156   0.7495384  )
        63           N   tau(  63) = (   0.3671629   0.3671629   0.3671629  )

   Crystallographic axes

     site n.     atom                  positions (cryst. coord.)
         1           C   tau(   1) = (  0.3757705  0.3757705  0.8735987  )
         2           C   tau(   2) = (  0.5002199  0.0003840  0.0003840  )
         3           C   tau(   3) = (  0.4999962 -0.0003597  0.4999962  )
         4           C   tau(   4) = (  0.0003840  0.5002199  0.0003840  )
         5           C   tau(   5) = ( -0.0003597  0.4999962  0.4999962  )
         6           C   tau(   6) = ( -0.0001200 -0.0001200 -0.0001200  )
         7           C   tau(   7) = (  0.0003840  0.0003840  0.5002199  )
         8           C   tau(   8) = (  0.2504072  0.2504072 -0.0009686  )
         9           C   tau(   9) = (  0.2512387  0.2512387  0.4960307  )
        10           C   tau(  10) = (  0.2502040  0.7491127  0.0008776  )
        11           C   tau(  11) = (  0.2514249  0.7484436  0.5020122  )
        12           C   tau(  12) = (  0.7491127  0.2502040  0.0008776  )
        13           C   tau(  13) = (  0.7484436  0.2514249  0.5020122  )
        14           C   tau(  14) = (  0.7495384  0.7495384 -0.0007156  )
        15           C   tau(  15) = (  0.4999962  0.4999962 -0.0003597  )
        16           C   tau(  16) = (  0.7486769  0.7486769  0.4984125  )
        17           C   tau(  17) = (  0.5020122  0.2514249  0.7484436  )
        18           C   tau(  18) = (  0.5020122  0.7484436  0.2514249  )
        19           C   tau(  19) = (  0.4984125  0.7486769  0.7486769  )
        20           C   tau(  20) = ( -0.0009686  0.2504072  0.2504072  )
        21           C   tau(  21) = (  0.0008776  0.2502040  0.7491127  )
        22           C   tau(  22) = (  0.0008776  0.7491127  0.2502040  )
        23           C   tau(  23) = ( -0.0007156  0.7495384  0.7495384  )
        24           C   tau(  24) = (  0.2512387  0.4960307  0.2512387  )
        25           C   tau(  25) = (  0.2514249  0.5020122  0.7484436  )
        26           C   tau(  26) = (  0.2504072 -0.0009686  0.2504072  )
        27           C   tau(  27) = (  0.2502040  0.0008776  0.7491127  )
        28           C   tau(  28) = (  0.7484436  0.5020122  0.2514249  )
        29           C   tau(  29) = (  0.7486769  0.4984125  0.7486769  )
        30           C   tau(  30) = (  0.4960307  0.2512387  0.2512387  )
        31           C   tau(  31) = (  0.7491127  0.0008776  0.2502040  )
        32           C   tau(  32) = (  0.6243271  0.8738160  0.6243271  )
        33           C   tau(  33) = (  0.6359211  0.3634580  0.6359211  )
        34           C   tau(  34) = (  0.3757296  0.8762176  0.8762176  )
        35           C   tau(  35) = (  0.3757705  0.8735987  0.3757705  )
        36           C   tau(  36) = (  0.8762176  0.3757296  0.8762176  )
        37           C   tau(  37) = (  0.8735987  0.3757705  0.3757705  )
        38           C   tau(  38) = (  0.8745330  0.8745330  0.8745330  )
        39           C   tau(  39) = (  0.8762176  0.8762176  0.3757296  )
        40           C   tau(  40) = (  0.1253729  0.1253729  0.8743888  )
        41           C   tau(  41) = (  0.1244182  0.1244182  0.3748717  )
        42           C   tau(  42) = (  0.1237553  0.6243718  0.8760864  )
        43           C   tau(  43) = (  0.1266863  0.6233579  0.3763697  )
        44           C   tau(  44) = (  0.6243718  0.1237553  0.8760864  )
        45           C   tau(  45) = (  0.6233579  0.1266863  0.3763697  )
        46           C   tau(  46) = (  0.6243718  0.8760864  0.1237553  )
        47           C   tau(  47) = (  0.6243271  0.6243271  0.8738160  )
        48           C   tau(  48) = (  0.3748717  0.1244182  0.1244182  )
        49           C   tau(  49) = (  0.3763697  0.1266863  0.6233579  )
        50           C   tau(  50) = (  0.3763697  0.6233579  0.1266863  )
        51           C   tau(  51) = (  0.3634580  0.6359211  0.6359211  )
        52           C   tau(  52) = (  0.8743888  0.1253729  0.1253729  )
        53           C   tau(  53) = (  0.8760864  0.1237553  0.6243718  )
        54           C   tau(  54) = (  0.8760864  0.6243718  0.1237553  )
        55           C   tau(  55) = (  0.8738160  0.6243271  0.6243271  )
        56           C   tau(  56) = (  0.1244182  0.3748717  0.1244182  )
        57           C   tau(  57) = (  0.1266863  0.3763697  0.6233579  )
        58           C   tau(  58) = (  0.1253729  0.8743888  0.1253729  )
        59           C   tau(  59) = (  0.1237553  0.8760864  0.6243718  )
        60           C   tau(  60) = (  0.6233579  0.3763697  0.1266863  )
        61           C   tau(  61) = (  0.6359211  0.6359211  0.3634580  )
        62           C   tau(  62) = (  0.7495384 -0.0007156  0.7495384  )
        63           N   tau(  63) = (  0.3671629  0.3671629  0.3671629  )

     number of k points=     6
                       cart. coord. in units 2pi/alat
        k(    1) = (   0.0000000   0.0000000   0.0000000), wk =   0.0370370
        k(    2) = (   0.0000000   0.0000000   0.3333333), wk =   0.2222222
        k(    3) = (   0.0000000   0.3333333   0.3333333), wk =   0.2222222
        k(    4) = (   0.3333333   0.3333333   0.3333333), wk =   0.0740741
        k(    5) = (  -0.3333333   0.0000000   0.3333333), wk =   0.2222222
        k(    6) = (   0.3333333  -0.3333333   0.3333333), wk =   0.2222222

                       cryst. coord.
        k(    1) = (   0.0000000   0.0000000   0.0000000), wk =   0.0370370
        k(    2) = (   0.0000000   0.0000000   0.3333333), wk =   0.2222222
        k(    3) = (   0.0000000   0.3333333   0.3333333), wk =   0.2222222
        k(    4) = (   0.3333333   0.3333333   0.3333333), wk =   0.0740741
        k(    5) = (  -0.3333333   0.0000000   0.3333333), wk =   0.2222222
        k(    6) = (   0.3333333  -0.3333333   0.3333333), wk =   0.2222222

     Dense  grid:   194039 G-vectors     FFT dimensions: (  72,  72,  72)

     Occupations read from input 

      Spin-up

        1.0000   1.0000   1.0000   1.0000   1.0000   1.0000   1.0000   1.0000
        1.0000   1.0000   1.0000   1.0000   1.0000   1.0000   1.0000   1.0000
        1.0000   1.0000   1.0000   1.0000   1.0000   1.0000   1.0000   1.0000
        1.0000   1.0000   1.0000   1.0000   1.0000   1.0000   1.0000   1.0000
        1.0000   1.0000   1.0000   1.0000   1.0000   1.0000   1.0000   1.0000
        1.0000   1.0000   1.0000   1.0000   1.0000   1.0000   1.0000   1.0000
        1.0000   1.0000   1.0000   1.0000   1.0000   1.0000   1.0000   1.0000
        1.0000   1.0000   1.0000   1.0000   1.0000   1.0000   1.0000   1.0000
        1.0000   1.0000   1.0000   1.0000   1.0000   1.0000   1.0000   1.0000
        1.0000   1.0000   1.0000   1.0000   1.0000   1.0000   1.0000   1.0000
        1.0000   1.0000   1.0000   1.0000   1.0000   1.0000   1.0000   1.0000
        1.0000   1.0000   1.0000   1.0000   1.0000   1.0000   1.0000   1.0000
        1.0000   1.0000   1.0000   1.0000   1.0000   1.0000   1.0000   1.0000
        1.0000   1.0000   1.0000   1.0000   1.0000   1.0000   1.0000   1.0000
        1.0000   1.0000   1.0000   1.0000   1.0000   1.0000   1.0000   1.0000
        1.0000   1.0000   1.0000   1.0000   1.0000   1.0000   1.0000   1.0000
        0.0000   0.0000   0.0000   0.0000   0.0000   0.0000   0.0000   0.0000
        0.0000   0.0000   0.0000   0.0000   0.0000   0.0000   0.0000   0.0000
        0.0000   0.0000   0.0000   0.0000   0.0000   0.0000   0.0000   0.0000

      Spin-down

        1.0000   1.0000   1.0000   1.0000   1.0000   1.0000   1.0000   1.0000
        1.0000   1.0000   1.0000   1.0000   1.0000   1.0000   1.0000   1.0000
        1.0000   1.0000   1.0000   1.0000   1.0000   1.0000   1.0000   1.0000
        1.0000   1.0000   1.0000   1.0000   1.0000   1.0000   1.0000   1.0000
        1.0000   1.0000   1.0000   1.0000   1.0000   1.0000   1.0000   1.0000
        1.0000   1.0000   1.0000   1.0000   1.0000   1.0000   1.0000   1.0000
        1.0000   1.0000   1.0000   1.0000   1.0000   1.0000   1.0000   1.0000
        1.0000   1.0000   1.0000   1.0000   1.0000   1.0000   1.0000   1.0000
        1.0000   1.0000   1.0000   1.0000   1.0000   1.0000   1.0000   1.0000
        1.0000   1.0000   1.0000   1.0000   1.0000   1.0000   1.0000   1.0000
        1.0000   1.0000   1.0000   1.0000   1.0000   1.0000   1.0000   1.0000
        1.0000   1.0000   1.0000   1.0000   1.0000   1.0000   1.0000   1.0000
        1.0000   1.0000   1.0000   1.0000   1.0000   1.0000   1.0000   1.0000
        1.0000   1.0000   1.0000   1.0000   1.0000   1.0000   1.0000   1.0000
        1.0000   1.0000   1.0000   1.0000   1.0000   1.0000   1.0000   1.0000
        1.0000   1.0000   1.0000   1.0000   1.0000   0.0000   1.0000   0.0000
        0.0000   0.0000   0.0000   0.0000   0.0000   0.0000   0.0000   0.0000
        0.0000   0.0000   0.0000   0.0000   0.0000   0.0000   0.0000   0.0000
        0.0000   0.0000   0.0000   0.0000   0.0000   0.0000   0.0000   0.0000

     Estimated max dynamical RAM per process >      60.23MB

     Estimated total allocated dynamical RAM >    5782.56MB
     Generating pointlists ...
     new r_m :   0.0857 (alat units)  1.1555 (a.u.) for type    1
     new r_m :   0.0860 (alat units)  1.1601 (a.u.) for type    2

     Initial potential from superposition of free atoms

     starting charge  252.99722, renormalised to  254.00000
     Starting wfc are  252 randomized atomic wfcs

     total cpu time spent up to now is        3.6 secs

     per-process dynamical memory:    59.5 Mb

     Self-consistent Calculation

     iteration #  1     ecut=    70.00 Ry     beta=0.50
     Davidson diagonalization with overlap
     ethr =  1.00E-02,  avg # of iterations =  3.0

     total cpu time spent up to now is        5.9 secs

     total energy              =    -722.45737408 Ry
     Harris-Foulkes estimate   =    -717.55946908 Ry
     estimated scf accuracy    <       6.66569835 Ry

     total magnetization       =     2.00 Bohr mag/cell
     absolute magnetization    =     3.67 Bohr mag/cell

     iteration #  2     ecut=    70.00 Ry     beta=0.50
     Davidson diagonalization with overlap
     ethr =  2.62E-03,  avg # of iterations =  2.0

     total cpu time spent up to now is        7.3 secs

     total energy              =    -724.28936748 Ry
     Harris-Foulkes estimate   =    -722.83373771 Ry
     estimated scf accuracy    <       1.44416566 Ry

     total magnetization       =     2.00 Bohr mag/cell
     absolute magnetization    =     2.50 Bohr mag/cell

     iteration #  3     ecut=    70.00 Ry     beta=0.50
     Davidson diagonalization with overlap
     ethr =  5.69E-04,  avg # of iterations =  7.2

     total cpu time spent up to now is       10.7 secs

     total energy              =    -724.54755901 Ry
     Harris-Foulkes estimate   =    -724.57883862 Ry
     estimated scf accuracy    <       0.64094774 Ry

     total magnetization       =     2.00 Bohr mag/cell
     absolute magnetization    =     2.14 Bohr mag/cell

     iteration #  4     ecut=    70.00 Ry     beta=0.50
     Davidson diagonalization with overlap
     ethr =  2.52E-04,  avg # of iterations =  6.3

     total cpu time spent up to now is       13.5 secs

     total energy              =    -724.68372535 Ry
     Harris-Foulkes estimate   =    -724.67267576 Ry
     estimated scf accuracy    <       0.02838044 Ry

     total magnetization       =     2.00 Bohr mag/cell
     absolute magnetization    =     2.14 Bohr mag/cell

     iteration #  5     ecut=    70.00 Ry     beta=0.50
     Davidson diagonalization with overlap
     ethr =  1.12E-05,  avg # of iterations =  9.6

     total cpu time spent up to now is       18.6 secs

     total energy              =    -724.69176975 Ry
     Harris-Foulkes estimate   =    -724.69125669 Ry
     estimated scf accuracy    <       0.00552953 Ry

     total magnetization       =     2.00 Bohr mag/cell
     absolute magnetization    =     2.16 Bohr mag/cell

     iteration #  6     ecut=    70.00 Ry     beta=0.50
     Davidson diagonalization with overlap
     ethr =  2.18E-06,  avg # of iterations =  8.3

     total cpu time spent up to now is       22.8 secs

     total energy              =    -724.69288601 Ry
     Harris-Foulkes estimate   =    -724.69294835 Ry
     estimated scf accuracy    <       0.00058297 Ry

     total magnetization       =     2.00 Bohr mag/cell
     absolute magnetization    =     2.17 Bohr mag/cell

     iteration #  7     ecut=    70.00 Ry     beta=0.50
     Davidson diagonalization with overlap
     ethr =  2.30E-07,  avg # of iterations =  3.6

     total cpu time spent up to now is       24.8 secs

     total energy              =    -724.69307735 Ry
     Harris-Foulkes estimate   =    -724.69305533 Ry
     estimated scf accuracy    <       0.00008871 Ry

     total magnetization       =     2.00 Bohr mag/cell
     absolute magnetization    =     2.18 Bohr mag/cell

     iteration #  8     ecut=    70.00 Ry     beta=0.50
     Davidson diagonalization with overlap
     ethr =  3.49E-08,  avg # of iterations =  3.1

     total cpu time spent up to now is       26.9 secs

     total energy              =    -724.69312122 Ry
     Harris-Foulkes estimate   =    -724.69310422 Ry
     estimated scf accuracy    <       0.00001680 Ry

     total magnetization       =     2.00 Bohr mag/cell
     absolute magnetization    =     2.19 Bohr mag/cell

     iteration #  9     ecut=    70.00 Ry     beta=0.50
     Davidson diagonalization with overlap
     ethr =  6.62E-09,  avg # of iterations =  3.8

     total cpu time spent up to now is       29.1 secs

     total energy              =    -724.69313403 Ry
     Harris-Foulkes estimate   =    -724.69312520 Ry
     estimated scf accuracy    <       0.00000485 Ry

     total magnetization       =     2.00 Bohr mag/cell
     absolute magnetization    =     2.20 Bohr mag/cell

     iteration # 10     ecut=    70.00 Ry     beta=0.50
     Davidson diagonalization with overlap
     ethr =  1.91E-09,  avg # of iterations =  4.6
 
     Magnetic moment per site:
     atom:    1    charge:    1.8346    magn:    0.0072    constr:    0.0000
     atom:    2    charge:    1.8548    magn:    0.0084    constr:    0.0000
     atom:    3    charge:    1.8428    magn:   -0.0013    constr:    0.0000
     atom:    4    charge:    1.8548    magn:    0.0084    constr:    0.0000
     atom:    5    charge:    1.8428    magn:   -0.0013    constr:    0.0000
     atom:    6    charge:    1.8322    magn:   -0.0000    constr:    0.0000
     atom:    7    charge:    1.8548    magn:    0.0084    constr:    0.0000
     atom:    8    charge:    1.8357    magn:   -0.0008    constr:    0.0000
     atom:    9    charge:    1.8114    magn:    0.0001    constr:    0.0000
     atom:   10    charge:    1.8302    magn:   -0.0014    constr:    0.0000
     atom:   11    charge:    1.8450    magn:   -0.0030    constr:    0.0000
     atom:   12    charge:    1.8302    magn:   -0.0014    constr:    0.0000
     atom:   13    charge:    1.8450    magn:   -0.0030    constr:    0.0000
     atom:   14    charge:    1.8348    magn:   -0.0016    constr:    0.0000
     atom:   15    charge:    1.8428    magn:   -0.0013    constr:    0.0000
     atom:   16    charge:    1.8415    magn:   -0.0000    constr:    0.0000
     atom:   17    charge:    1.8450    magn:   -0.0030    constr:    0.0000
     atom:   18    charge:    1.8450    magn:   -0.0030    constr:    0.0000
     atom:   19    charge:    1.8415    magn:   -0.0000    constr:    0.0000
     atom:   20    charge:    1.8357    magn:   -0.0008    constr:    0.0000
     atom:   21    charge:    1.8302    magn:   -0.0014    constr:    0.0000
     atom:   22    charge:    1.8302    magn:   -0.0014    constr:    0.0000
     atom:   23    charge:    1.8348    magn:   -0.0016    constr:    0.0000
     atom:   24    charge:    1.8114    magn:    0.0001    constr:    0.0000
     atom:   25    charge:    1.8450    magn:   -0.0030    constr:    0.0000
     atom:   26    charge:    1.8357    magn:   -0.0008    constr:    0.0000
     atom:   27    charge:    1.8302    magn:   -0.0014    constr:    0.0000
     atom:   28    charge:    1.8450    magn:   -0.0030    constr:    0.0000
     atom:   29    charge:    1.8415    magn:   -0.0000    constr:    0.0000
     atom:   30    charge:    1.8114    magn:    0.0001    constr:    0.0000
     atom:   31    charge:    1.8302    magn:   -0.0014    constr:    0.0000
     atom:   32    charge:    1.8356    magn:    0.0061    constr:    0.0000
     atom:   33    charge:    1.8673    magn:    0.2034    constr:    0.0000
     atom:   34    charge:    1.8327    magn:    0.0166    constr:    0.0000
     atom:   35    charge:    1.8346    magn:    0.0072    constr:    0.0000
     atom:   36    charge:    1.8327    magn:    0.0166    constr:    0.0000
     atom:   37    charge:    1.8346    magn:    0.0072    constr:    0.0000
     atom:   38    charge:    1.8387    magn:    0.0046    constr:    0.0000
     atom:   39    charge:    1.8327    magn:    0.0166    constr:    0.0000
     atom:   40    charge:    1.8384    magn:    0.0037    constr:    0.0000
     atom:   41    charge:    1.8424    magn:    0.0088    constr:    0.0000
     atom:   42    charge:    1.8381    magn:    0.0177    constr:    0.0000
     atom:   43    charge:    1.8328    magn:    0.0047    constr:    0.0000
     atom:   44    charge:    1.8381    magn:    0.0177    constr:    0.0000
     atom:   45    charge:    1.8328    magn:    0.0047    constr:    0.0000
     atom:   46    charge:    1.8381    magn:    0.0177    constr:    0.0000
     atom:   47    charge:    1.8356    magn:    0.0061    constr:    0.0000
     atom:   48    charge:    1.8424    magn:    0.0088    constr:    0.0000
     atom:   49    charge:    1.8328    magn:    0.0047    constr:    0.0000
     atom:   50    charge:    1.8328    magn:    0.0047    constr:    0.0000
     atom:   51    charge:    1.8673    magn:    0.2034    constr:    0.0000
     atom:   52    charge:    1.8384    magn:    0.0037    constr:    0.0000
     atom:   53    charge:    1.8381    magn:    0.0177    constr:    0.0000
     atom:   54    charge:    1.8381    magn:    0.0177    constr:    0.0000
     atom:   55    charge:    1.8356    magn:    0.0061    constr:    0.0000
     atom:   56    charge:    1.8424    magn:    0.0088    constr:    0.0000
     atom:   57    charge:    1.8328    magn:    0.0047    constr:    0.0000
     atom:   58    charge:    1.8384    magn:    0.0037    constr:    0.0000
     atom:   59    charge:    1.8381    magn:    0.0177    constr:    0.0000
     atom:   60    charge:    1.8328    magn:    0.0047    constr:    0.0000
     atom:   61    charge:    1.8673    magn:    0.2034    constr:    0.0000
     atom:   62    charge:    1.8348    magn:   -0.0016    constr:    0.0000
     atom:   63    charge:    2.9121    magn:    0.1242    constr:    0.0000

     total cpu time spent up to now is       31.8 secs

     End of self-consistent calculation

 ------ SPIN UP ------------


          k = 0.0000 0.0000 0.0000 ( 24207 PWs)   bands (ev):

    -8.6231  -7.1614  -6.2944  -6.2944  -6.1666  -6.1666  -5.9056  -5.0178
    -4.1540  -4.1540  -4.1348  -4.1348  -4.0350  -4.0350  -4.0091  -3.9676
    -3.8682  -3.8682  -3.3805  -2.9824  -2.6844  -2.6844  -2.1348  -0.4095
    -0.4095  -0.3647  -0.3311  -0.1860   0.1418   0.1418   0.2562   0.2562
     0.3459   0.5738   0.7884   0.7884   0.9600   0.9600   0.9675   1.0117
     1.0117   1.0504   1.3148   1.3148   3.0081   3.7977   3.7977   3.9977
     4.1888   4.1888   4.1945   4.2067   4.2344   4.2344   4.3939   4.3939
     4.4431   4.4431   4.5601   4.6185   4.6225   4.6225   4.6407   4.7185
     4.7185   4.8601   4.9203   4.9203   4.9894   5.1702   5.1702   5.2373
     5.3141   5.3141   5.3589   5.3952   5.3952   5.9824   5.9824   6.0174
     6.5790   6.5790   6.6870   6.8987   6.9746   6.9746   7.4491   8.2464
     8.2464   8.3543   8.4292   8.4292   8.5993   8.5993   8.7568   8.7579
     8.7722   8.7722   8.8381   8.8381   8.8621   9.2238   9.2276   9.2276
     9.6233   9.6233   9.8568   9.8620   9.8620   9.8713   9.8844   9.9211
     9.9211   9.9520   9.9535   9.9535  10.0630  10.0630  10.2664  10.2664
    10.2718  10.5538  12.1490  12.3815  12.3815  13.5687  14.9072  14.9072
    17.2159  17.3126  17.3126  17.4602  17.5173  17.5173  17.7940  17.8753
    17.8753  17.9769  17.9769  18.2991  18.8573  18.8573  18.9199  20.5103
    20.7352  20.7352  20.8026  20.8596  20.8596  20.9527  20.9528  20.9628

     occupation numbers 
     1.0000   1.0000   1.0000   1.0000   1.0000   1.0000   1.0000   1.0000
     1.0000   1.0000   1.0000   1.0000   1.0000   1.0000   1.0000   1.0000
     1.0000   1.0000   1.0000   1.0000   1.0000   1.0000   1.0000   1.0000
     1.0000   1.0000   1.0000   1.0000   1.0000   1.0000   1.0000   1.0000
     1.0000   1.0000   1.0000   1.0000   1.0000   1.0000   1.0000   1.0000
     1.0000   1.0000   1.0000   1.0000   1.0000   1.0000   1.0000   1.0000
     1.0000   1.0000   1.0000   1.0000   1.0000   1.0000   1.0000   1.0000
     1.0000   1.0000   1.0000   1.0000   1.0000   1.0000   1.0000   1.0000
     1.0000   1.0000   1.0000   1.0000   1.0000   1.0000   1.0000   1.0000
     1.0000   1.0000   1.0000   1.0000   1.0000   1.0000   1.0000   1.0000
     1.0000   1.0000   1.0000   1.0000   1.0000   1.0000   1.0000   1.0000
     1.0000   1.0000   1.0000   1.0000   1.0000   1.0000   1.0000   1.0000
     1.0000   1.0000   1.0000   1.0000   1.0000   1.0000   1.0000   1.0000
     1.0000   1.0000   1.0000   1.0000   1.0000   1.0000   1.0000   1.0000
     1.0000   1.0000   1.0000   1.0000   1.0000   1.0000   1.0000   1.0000
     1.0000   1.0000   1.0000   1.0000   1.0000   1.0000   1.0000   1.0000
     0.0000   0.0000   0.0000   0.0000   0.0000   0.0000   0.0000   0.0000
     0.0000   0.0000   0.0000   0.0000   0.0000   0.0000   0.0000   0.0000
     0.0000   0.0000   0.0000   0.0000   0.0000   0.0000   0.0000   0.0000

          k = 0.0000 0.0000 0.3333 ( 24280 PWs)   bands (ev):

    -8.4088  -7.6242  -6.7097  -6.0506  -5.9261  -5.8344  -5.5176  -5.3050
    -5.1720  -5.0093  -4.5387  -4.1496  -3.8313  -3.8144  -3.6950  -3.4479
    -3.2265  -3.1559  -2.9421  -2.6179  -2.5162  -2.3838  -2.3365  -1.8024
    -0.8812  -0.7077  -0.5814  -0.3680   0.1381   0.2242   0.3398   0.3964
     0.4678   0.5438   0.5578   0.6551   0.7266   0.7341   0.9746   1.4535
     1.9652   1.9990   2.1510   2.1953   2.3948   2.4654   2.4681   2.7379
     2.9358   2.9884   3.1488   3.1616   3.8559   3.9304   4.0424   4.0580
     4.2794   4.3336   4.4842   4.5319   5.0307   5.0746   5.1111   5.1923
     5.1927   5.5680   5.5948   5.6976   5.7416   6.0309   6.0809   6.1610
     6.1780   6.3069   6.3756   6.4551   6.4910   6.5761   6.6036   6.7372
     6.7502   6.8793   6.8942   6.9218   7.1286   7.1496   7.1743   7.2577
     7.3777   7.4599   7.6543   7.7599   7.8175   8.0478   8.1195   8.2669
     8.3040   8.4362   8.6228   8.6904   8.7572   9.0594   9.1591   9.3373
     9.3548   9.6112   9.6329   9.7011   9.7822   9.9062   9.9274   9.9326
     9.9521  10.0163  10.0822  10.1091  10.1796  10.2534  10.2697  10.3449
    10.3763  11.0281  11.6805  11.6809  11.9374  13.2680  14.5937  14.7585
    17.1573  17.2845  17.9311  18.2534  18.3308  18.4778  18.5041  18.5880
    18.8080  18.8279  18.9753  19.0599  19.1696  19.7877  19.8369  20.3957
    20.6382  20.6499  20.7729  20.7848  20.8196  20.8354  20.8919  20.9392

     occupation numbers 
     1.0000   1.0000   1.0000   1.0000   1.0000   1.0000   1.0000   1.0000
     1.0000   1.0000   1.0000   1.0000   1.0000   1.0000   1.0000   1.0000
     1.0000   1.0000   1.0000   1.0000   1.0000   1.0000   1.0000   1.0000
     1.0000   1.0000   1.0000   1.0000   1.0000   1.0000   1.0000   1.0000
     1.0000   1.0000   1.0000   1.0000   1.0000   1.0000   1.0000   1.0000
     1.0000   1.0000   1.0000   1.0000   1.0000   1.0000   1.0000   1.0000
     1.0000   1.0000   1.0000   1.0000   1.0000   1.0000   1.0000   1.0000
     1.0000   1.0000   1.0000   1.0000   1.0000   1.0000   1.0000   1.0000
     1.0000   1.0000   1.0000   1.0000   1.0000   1.0000   1.0000   1.0000
     1.0000   1.0000   1.0000   1.0000   1.0000   1.0000   1.0000   1.0000
     1.0000   1.0000   1.0000   1.0000   1.0000   1.0000   1.0000   1.0000
     1.0000   1.0000   1.0000   1.0000   1.0000   1.0000   1.0000   1.0000
     1.0000   1.0000   1.0000   1.0000   1.0000   1.0000   1.0000   1.0000
     1.0000   1.0000   1.0000   1.0000   1.0000   1.0000   1.0000   1.0000
     1.0000   1.0000   1.0000   1.0000   1.0000   1.0000   1.0000   1.0000
     1.0000   1.0000   1.0000   1.0000   1.0000   1.0000   1.0000   1.0000
     0.0000   0.0000   0.0000   0.0000   0.0000   0.0000   0.0000   0.0000
     0.0000   0.0000   0.0000   0.0000   0.0000   0.0000   0.0000   0.0000
     0.0000   0.0000   0.0000   0.0000   0.0000   0.0000   0.0000   0.0000

          k = 0.0000 0.3333 0.3333 ( 24236 PWs)   bands (ev):

    -8.2174  -7.4687  -7.2357  -6.6182  -6.0131  -5.6858  -5.3670  -5.0263
    -4.9929  -4.8636  -4.5179  -4.2648  -4.2328  -3.9467  -3.5725  -3.5276
    -2.8146  -2.3893  -2.3415  -2.3282  -2.2022  -2.1958  -2.0562  -1.9036
    -1.4990  -1.3267  -1.1093  -0.9255  -0.5753  -0.0582   0.0556   0.1197
     0.1633   0.4555   0.6707   1.1706   1.1814   1.3069   1.3657   1.3745
     1.4321   1.4562   1.9381   2.0533   2.1131   2.3826   2.7212   2.8133
     2.9471   3.4810   3.6390   3.6491   3.7635   3.8031   3.9571   4.0229
     4.1016   4.5301   4.6415   4.7912   5.0099   5.0234   5.1370   5.2933
     5.3243   5.5751   5.6184   5.6691   5.7307   5.9212   5.9970   6.0632
     6.1410   6.2254   6.2743   6.4768   6.5247   6.5849   6.6442   6.8342
     6.9119   6.9387   6.9968   7.0410   7.2206   7.2640   7.4761   7.6675
     7.9201   7.9234   8.0583   8.0602   8.1133   8.2187   8.2626   8.3050
     8.3366   8.4016   8.5245   8.6218   8.6763   8.7079   8.8365   8.8729
     9.0698   9.1679   9.2321   9.2992   9.4518   9.4670   9.5404   9.6338
     9.6976   9.7790   9.8979  10.0337  10.0523  10.1203  10.3765  10.6446
    10.9810  11.1877  11.5562  11.5630  12.1941  13.0594  14.5194  14.8370
    18.0005  18.1759  18.2130  18.2965  18.3400  18.7848  18.8553  18.9415
    19.1633  19.2042  19.4368  19.4721  19.6811  19.7825  19.9607  19.9834
    20.1761  20.4257  20.4665  20.4937  20.5570  20.5726  20.6109  20.6247

     occupation numbers 
     1.0000   1.0000   1.0000   1.0000   1.0000   1.0000   1.0000   1.0000
     1.0000   1.0000   1.0000   1.0000   1.0000   1.0000   1.0000   1.0000
     1.0000   1.0000   1.0000   1.0000   1.0000   1.0000   1.0000   1.0000
     1.0000   1.0000   1.0000   1.0000   1.0000   1.0000   1.0000   1.0000
     1.0000   1.0000   1.0000   1.0000   1.0000   1.0000   1.0000   1.0000
     1.0000   1.0000   1.0000   1.0000   1.0000   1.0000   1.0000   1.0000
     1.0000   1.0000   1.0000   1.0000   1.0000   1.0000   1.0000   1.0000
     1.0000   1.0000   1.0000   1.0000   1.0000   1.0000   1.0000   1.0000
     1.0000   1.0000   1.0000   1.0000   1.0000   1.0000   1.0000   1.0000
     1.0000   1.0000   1.0000   1.0000   1.0000   1.0000   1.0000   1.0000
     1.0000   1.0000   1.0000   1.0000   1.0000   1.0000   1.0000   1.0000
     1.0000   1.0000   1.0000   1.0000   1.0000   1.0000   1.0000   1.0000
     1.0000   1.0000   1.0000   1.0000   1.0000   1.0000   1.0000   1.0000
     1.0000   1.0000   1.0000   1.0000   1.0000   1.0000   1.0000   1.0000
     1.0000   1.0000   1.0000   1.0000   1.0000   1.0000   1.0000   1.0000
     1.0000   1.0000   1.0000   1.0000   1.0000   1.0000   1.0000   1.0000
     0.0000   0.0000   0.0000   0.0000   0.0000   0.0000   0.0000   0.0000
     0.0000   0.0000   0.0000   0.0000   0.0000   0.0000   0.0000   0.0000
     0.0000   0.0000   0.0000   0.0000   0.0000   0.0000   0.0000   0.0000

          k = 0.3333 0.3333 0.3333 ( 24303 PWs)   bands (ev):

    -8.0543  -7.2980  -6.9878  -6.9878  -6.3375  -6.2286  -6.2286  -5.4822
    -4.2854  -4.0413  -4.0413  -3.5789  -3.3888  -3.3888  -3.3531  -3.3531
    -3.3056  -2.9205  -2.6706  -2.6706  -1.9597  -1.9316  -1.9316  -1.5505
    -1.4645  -1.4645  -1.4000  -1.4000  -1.3407  -1.2272  -1.2272   0.0208
     0.8472   0.8472   0.9494   0.9662   0.9662   1.2670   1.8137   1.8137
     1.8713   1.8824   1.9883   1.9883   2.5532   2.5532   2.5895   2.7063
     2.7228   2.7228   3.1250   3.1250   3.5187   4.0429   4.2946   4.2946
     4.7937   4.8850   4.8850   4.9480   5.0813   5.0813   5.1312   5.2979
     5.2979   5.4007   5.4868   5.4868   5.5322   5.5322   5.5989   6.3329
     6.6580   6.6580   6.9343   6.9727   6.9860   6.9860   7.0748   7.0748
     7.1959   7.1959   7.2436   7.2466   7.2466   7.2600   7.3545   7.3545
     7.3655   7.4661   7.7268   7.7268   7.9103   7.9103   7.9614   7.9968
     8.1824   8.1824   8.2895   8.2895   8.3016   8.4344   8.4703   8.4703
     8.6736   8.6736   8.7529   9.0574   9.0828   9.5145   9.5145   9.7653
     9.7653  10.4761  10.4777  10.4777  10.5024  10.9301  10.9301  11.1172
    11.2718  11.2718  11.2875  11.6467  11.6467  12.9398  14.8162  14.8162
    18.0327  18.2250  18.2250  18.4422  18.6361  18.6361  19.1737  19.3657
    19.3657  19.5385  19.5385  19.5873  19.6090  19.6090  19.6435  19.7446
    19.7446  19.8659  19.9099  19.9099  19.9892  19.9892  20.0282  20.1429

     occupation numbers 
     1.0000   1.0000   1.0000   1.0000   1.0000   1.0000   1.0000   1.0000
     1.0000   1.0000   1.0000   1.0000   1.0000   1.0000   1.0000   1.0000
     1.0000   1.0000   1.0000   1.0000   1.0000   1.0000   1.0000   1.0000
     1.0000   1.0000   1.0000   1.0000   1.0000   1.0000   1.0000   1.0000
     1.0000   1.0000   1.0000   1.0000   1.0000   1.0000   1.0000   1.0000
     1.0000   1.0000   1.0000   1.0000   1.0000   1.0000   1.0000   1.0000
     1.0000   1.0000   1.0000   1.0000   1.0000   1.0000   1.0000   1.0000
     1.0000   1.0000   1.0000   1.0000   1.0000   1.0000   1.0000   1.0000
     1.0000   1.0000   1.0000   1.0000   1.0000   1.0000   1.0000   1.0000
     1.0000   1.0000   1.0000   1.0000   1.0000   1.0000   1.0000   1.0000
     1.0000   1.0000   1.0000   1.0000   1.0000   1.0000   1.0000   1.0000
     1.0000   1.0000   1.0000   1.0000   1.0000   1.0000   1.0000   1.0000
     1.0000   1.0000   1.0000   1.0000   1.0000   1.0000   1.0000   1.0000
     1.0000   1.0000   1.0000   1.0000   1.0000   1.0000   1.0000   1.0000
     1.0000   1.0000   1.0000   1.0000   1.0000   1.0000   1.0000   1.0000
     1.0000   1.0000   1.0000   1.0000   1.0000   1.0000   1.0000   1.0000
     0.0000   0.0000   0.0000   0.0000   0.0000   0.0000   0.0000   0.0000
     0.0000   0.0000   0.0000   0.0000   0.0000   0.0000   0.0000   0.0000
     0.0000   0.0000   0.0000   0.0000   0.0000   0.0000   0.0000   0.0000

          k =-0.3333 0.0000 0.3333 ( 24236 PWs)   bands (ev):

    -8.2036  -7.5762  -7.1109  -6.6110  -6.0570  -5.6907  -5.4011  -5.0491
    -4.9405  -4.7712  -4.5422  -4.3146  -4.2302  -4.0643  -3.6136  -3.3403
    -2.8143  -2.4333  -2.3759  -2.2941  -2.2082  -2.1569  -2.1156  -1.6766
    -1.6438  -1.3271  -1.1266  -1.0010  -0.6158  -0.0267   0.0626   0.1064
     0.2599   0.4738   0.8693   1.0270   1.1862   1.2103   1.2304   1.3835
     1.4749   1.5780   1.8360   1.8769   2.1222   2.5669   2.6506   2.8575
     2.9469   3.4668   3.6301   3.6961   3.7480   3.8967   4.0061   4.1183
     4.1652   4.3711   4.5672   4.7820   4.9510   4.9900   5.1713   5.2365
     5.3891   5.5405   5.6256   5.6691   5.7775   5.9905   6.0705   6.1161
     6.1642   6.2203   6.2619   6.4045   6.4518   6.6116   6.6242   6.7994
     6.8810   6.9516   7.0015   7.0867   7.2055   7.3654   7.4773   7.6413
     7.8193   7.8718   7.9403   8.0635   8.1680   8.2104   8.2536   8.2675
     8.3529   8.4271   8.5224   8.5770   8.7178   8.7450   8.8868   8.9639
     9.0600   9.1242   9.2165   9.3103   9.4238   9.4811   9.5015   9.6500
     9.7130   9.7420   9.9302  10.0339  10.0652  10.1057  10.4784  10.7289
    10.8824  11.1239  11.4413  11.5601  12.2101  13.3454  14.4337  14.7306
    17.9833  18.1895  18.2430  18.2976  18.3584  18.7718  18.9205  19.0926
    19.1036  19.2620  19.3289  19.4666  19.6928  19.8252  19.8531  19.9965
    20.2073  20.3242  20.3892  20.4953  20.5421  20.5655  20.6306  20.6772

     occupation numbers 
     1.0000   1.0000   1.0000   1.0000   1.0000   1.0000   1.0000   1.0000
     1.0000   1.0000   1.0000   1.0000   1.0000   1.0000   1.0000   1.0000
     1.0000   1.0000   1.0000   1.0000   1.0000   1.0000   1.0000   1.0000
     1.0000   1.0000   1.0000   1.0000   1.0000   1.0000   1.0000   1.0000
     1.0000   1.0000   1.0000   1.0000   1.0000   1.0000   1.0000   1.0000
     1.0000   1.0000   1.0000   1.0000   1.0000   1.0000   1.0000   1.0000
     1.0000   1.0000   1.0000   1.0000   1.0000   1.0000   1.0000   1.0000
     1.0000   1.0000   1.0000   1.0000   1.0000   1.0000   1.0000   1.0000
     1.0000   1.0000   1.0000   1.0000   1.0000   1.0000   1.0000   1.0000
     1.0000   1.0000   1.0000   1.0000   1.0000   1.0000   1.0000   1.0000
     1.0000   1.0000   1.0000   1.0000   1.0000   1.0000   1.0000   1.0000
     1.0000   1.0000   1.0000   1.0000   1.0000   1.0000   1.0000   1.0000
     1.0000   1.0000   1.0000   1.0000   1.0000   1.0000   1.0000   1.0000
     1.0000   1.0000   1.0000   1.0000   1.0000   1.0000   1.0000   1.0000
     1.0000   1.0000   1.0000   1.0000   1.0000   1.0000   1.0000   1.0000
     1.0000   1.0000   1.0000   1.0000   1.0000   1.0000   1.0000   1.0000
     0.0000   0.0000   0.0000   0.0000   0.0000   0.0000   0.0000   0.0000
     0.0000   0.0000   0.0000   0.0000   0.0000   0.0000   0.0000   0.0000
     0.0000   0.0000   0.0000   0.0000   0.0000   0.0000   0.0000   0.0000

          k = 0.3333-0.3333 0.3333 ( 24303 PWs)   bands (ev):

    -8.0305  -7.4282  -6.9883  -6.8334  -6.4997  -6.2273  -6.0004  -5.5254
    -4.5839  -4.0424  -3.9483  -3.7339  -3.4392  -3.3745  -3.3318  -3.2149
    -3.0832  -2.8961  -2.6976  -2.4434  -2.1099  -1.9060  -1.8634  -1.7330
    -1.4947  -1.4855  -1.4286  -1.3639  -1.3551  -1.2518  -1.1747  -0.1151
     0.7213   0.8649   0.9362   0.9738   1.0535   1.4033   1.7041   1.7563
     1.8550   1.9310   2.0345   2.2186   2.5582   2.5871   2.6802   2.7078
     2.7185   2.7703   2.8948   3.1628   3.4750   3.9590   4.2145   4.3038
     4.7678   4.7723   4.8248   4.9978   5.0103   5.0535   5.1713   5.2415
     5.2606   5.4151   5.4293   5.5111   5.6555   5.7734   5.8185   6.4205
     6.6157   6.7094   6.9040   6.9181   6.9608   7.0296   7.0732   7.0808
     7.1523   7.1579   7.2240   7.2490   7.2675   7.3136   7.3440   7.3533
     7.3762   7.4464   7.7218   7.7219   7.8076   7.9108   7.9436   7.9479
     8.1300   8.1554   8.2587   8.2793   8.3570   8.3875   8.4062   8.4929
     8.6871   8.7238   8.9222   8.9954   9.0740   9.5107   9.5785   9.5889
     9.8499  10.3830  10.4238  10.5172  10.5375  10.8611  10.9178  11.1297
    11.2234  11.2475  11.2896  11.7166  11.7201  13.3254  14.5068  14.8116
    18.0411  18.2588  18.3192  18.5082  18.6434  18.7077  19.1300  19.3580
    19.4353  19.4864  19.5162  19.5500  19.5951  19.6224  19.6426  19.7112
    19.7456  19.7822  19.8978  19.8983  19.9772  19.9849  20.0376  20.1442

     occupation numbers 
     1.0000   1.0000   1.0000   1.0000   1.0000   1.0000   1.0000   1.0000
     1.0000   1.0000   1.0000   1.0000   1.0000   1.0000   1.0000   1.0000
     1.0000   1.0000   1.0000   1.0000   1.0000   1.0000   1.0000   1.0000
     1.0000   1.0000   1.0000   1.0000   1.0000   1.0000   1.0000   1.0000
     1.0000   1.0000   1.0000   1.0000   1.0000   1.0000   1.0000   1.0000
     1.0000   1.0000   1.0000   1.0000   1.0000   1.0000   1.0000   1.0000
     1.0000   1.0000   1.0000   1.0000   1.0000   1.0000   1.0000   1.0000
     1.0000   1.0000   1.0000   1.0000   1.0000   1.0000   1.0000   1.0000
     1.0000   1.0000   1.0000   1.0000   1.0000   1.0000   1.0000   1.0000
     1.0000   1.0000   1.0000   1.0000   1.0000   1.0000   1.0000   1.0000
     1.0000   1.0000   1.0000   1.0000   1.0000   1.0000   1.0000   1.0000
     1.0000   1.0000   1.0000   1.0000   1.0000   1.0000   1.0000   1.0000
     1.0000   1.0000   1.0000   1.0000   1.0000   1.0000   1.0000   1.0000
     1.0000   1.0000   1.0000   1.0000   1.0000   1.0000   1.0000   1.0000
     1.0000   1.0000   1.0000   1.0000   1.0000   1.0000   1.0000   1.0000
     1.0000   1.0000   1.0000   1.0000   1.0000   1.0000   1.0000   1.0000
     0.0000   0.0000   0.0000   0.0000   0.0000   0.0000   0.0000   0.0000
     0.0000   0.0000   0.0000   0.0000   0.0000   0.0000   0.0000   0.0000
     0.0000   0.0000   0.0000   0.0000   0.0000   0.0000   0.0000   0.0000

 ------ SPIN DOWN ----------


          k = 0.0000 0.0000 0.0000 ( 24207 PWs)   bands (ev):

    -8.5853  -7.0859  -6.2762  -6.2762  -6.1313  -6.1313  -5.8685  -4.9721
    -4.1348  -4.1348  -4.1187  -4.1187  -3.9888  -3.9854  -3.9854  -3.9520
    -3.8288  -3.8288  -3.3377  -2.9544  -2.6375  -2.6375  -2.0114  -0.3917
    -0.3917  -0.3447  -0.3014  -0.1100   0.1600   0.1600   0.2889   0.2889
     0.3668   0.6115   0.8027   0.8027   0.9853   0.9853   0.9960   1.0278
     1.0278   1.0629   1.4560   1.4560   3.1205   3.8326   3.8326   4.0310
     4.2134   4.2215   4.2215   4.2460   4.2516   4.2516   4.4253   4.4253
     4.4744   4.4744   4.5780   4.6405   4.6405   4.6468   4.6525   4.7548
     4.7548   4.8805   4.9473   4.9473   5.0770   5.2039   5.2039   5.2694
     5.3254   5.3254   5.3681   5.4438   5.4438   6.0354   6.0354   6.0681
     6.6078   6.6078   6.7133   6.9739   7.0533   7.0533   7.6213   8.2857
     8.2857   8.3951   8.4596   8.4596   8.6326   8.6326   8.7781   8.7895
     8.7895   8.8250   8.8790   8.8794   8.8794   9.2586   9.2586   9.2590
     9.6540   9.6540   9.8662   9.8807   9.8807   9.8847   9.9148   9.9408
     9.9408   9.9691   9.9784   9.9784  10.0958  10.0958  10.3169  10.3169
    10.3184  11.0430  12.4857  12.4962  12.4962  14.2628  16.0015  16.0015
    17.2605  17.3311  17.3311  17.4840  17.5645  17.5645  17.8294  17.8967
    17.8967  18.0118  18.0118  18.4126  18.9335  18.9335  18.9689  20.5795
    20.7504  20.7504  20.8140  20.8837  20.8837  20.9748  20.9749  20.9810

     occupation numbers 
     1.0000   1.0000   1.0000   1.0000   1.0000   1.0000   1.0000   1.0000
     1.0000   1.0000   1.0000   1.0000   1.0000   1.0000   1.0000   1.0000
     1.0000   1.0000   1.0000   1.0000   1.0000   1.0000   1.0000   1.0000
     1.0000   1.0000   1.0000   1.0000   1.0000   1.0000   1.0000   1.0000
     1.0000   1.0000   1.0000   1.0000   1.0000   1.0000   1.0000   1.0000
     1.0000   1.0000   1.0000   1.0000   1.0000   1.0000   1.0000   1.0000
     1.0000   1.0000   1.0000   1.0000   1.0000   1.0000   1.0000   1.0000
     1.0000   1.0000   1.0000   1.0000   1.0000   1.0000   1.0000   1.0000
     1.0000   1.0000   1.0000   1.0000   1.0000   1.0000   1.0000   1.0000
     1.0000   1.0000   1.0000   1.0000   1.0000   1.0000   1.0000   1.0000
     1.0000   1.0000   1.0000   1.0000   1.0000   1.0000   1.0000   1.0000
     1.0000   1.0000   1.0000   1.0000   1.0000   1.0000   1.0000   1.0000
     1.0000   1.0000   1.0000   1.0000   1.0000   1.0000   1.0000   1.0000
     1.0000   1.0000   1.0000   1.0000   1.0000   1.0000   1.0000   1.0000
     1.0000   1.0000   1.0000   1.0000   1.0000   1.0000   1.0000   1.0000
     1.0000   1.0000   1.0000   1.0000   1.0000   0.0000   1.0000   0.0000
     0.0000   0.0000   0.0000   0.0000   0.0000   0.0000   0.0000   0.0000
     0.0000   0.0000   0.0000   0.0000   0.0000   0.0000   0.0000   0.0000
     0.0000   0.0000   0.0000   0.0000   0.0000   0.0000   0.0000   0.0000

          k = 0.0000 0.0000 0.3333 ( 24280 PWs)   bands (ev):

    -8.3681  -7.5827  -6.6436  -6.0325  -5.8934  -5.8085  -5.4947  -5.2865
    -5.1296  -4.9603  -4.5037  -4.1226  -3.7930  -3.7890  -3.6673  -3.4207
    -3.1865  -3.1133  -2.9031  -2.5899  -2.4966  -2.3410  -2.2901  -1.7216
    -0.8293  -0.6876  -0.5457  -0.3103   0.1787   0.2419   0.3635   0.4170
     0.4943   0.5778   0.5824   0.6811   0.7538   0.7701   1.0570   1.5122
     2.0009   2.0203   2.1887   2.2266   2.4393   2.5044   2.5045   2.7664
     2.9719   3.0097   3.2206   3.2433   3.8774   3.9678   4.0669   4.0769
     4.2997   4.3834   4.5242   4.5731   5.0690   5.1373   5.1560   5.2202
     5.2289   5.6049   5.6195   5.7343   5.7830   6.0654   6.1073   6.2058
     6.2061   6.3263   6.4054   6.4766   6.5329   6.6272   6.6379   6.7639
     6.7793   6.9159   6.9242   6.9630   7.1672   7.1684   7.2071   7.2927
     7.4257   7.5051   7.7401   7.8011   7.8688   8.0707   8.1508   8.3053
     8.3259   8.4593   8.6842   8.7488   8.7925   9.1199   9.2401   9.3830
     9.3940   9.6500   9.6622   9.7175   9.8181   9.9187   9.9539   9.9568
     9.9976  10.0469  10.1270  10.1405  10.2116  10.2958  10.3068  10.4226
    10.4264  11.3043  11.7441  11.8022  12.1238  14.1445  15.6992  15.8978
    17.1955  17.3170  17.9588  18.2874  18.3487  18.5004  18.5275  18.6302
    18.8460  18.8474  19.0176  19.1043  19.2571  19.8430  19.8822  20.4512
    20.6569  20.6866  20.7913  20.8009  20.8336  20.8630  20.9207  20.9600

     occupation numbers 
     1.0000   1.0000   1.0000   1.0000   1.0000   1.0000   1.0000   1.0000
     1.0000   1.0000   1.0000   1.0000   1.0000   1.0000   1.0000   1.0000
     1.0000   1.0000   1.0000   1.0000   1.0000   1.0000   1.0000   1.0000
     1.0000   1.0000   1.0000   1.0000   1.0000   1.0000   1.0000   1.0000
     1.0000   1.0000   1.0000   1.0000   1.0000   1.0000   1.0000   1.0000
     1.0000   1.0000   1.0000   1.0000   1.0000   1.0000   1.0000   1.0000
     1.0000   1.0000   1.0000   1.0000   1.0000   1.0000   1.0000   1.0000
     1.0000   1.0000   1.0000   1.0000   1.0000   1.0000   1.0000   1.0000
     1.0000   1.0000   1.0000   1.0000   1.0000   1.0000   1.0000   1.0000
     1.0000   1.0000   1.0000   1.0000   1.0000   1.0000   1.0000   1.0000
     1.0000   1.0000   1.0000   1.0000   1.0000   1.0000   1.0000   1.0000
     1.0000   1.0000   1.0000   1.0000   1.0000   1.0000   1.0000   1.0000
     1.0000   1.0000   1.0000   1.0000   1.0000   1.0000   1.0000   1.0000
     1.0000   1.0000   1.0000   1.0000   1.0000   1.0000   1.0000   1.0000
     1.0000   1.0000   1.0000   1.0000   1.0000   1.0000   1.0000   1.0000
     1.0000   1.0000   1.0000   1.0000   1.0000   0.0000   1.0000   0.0000
     0.0000   0.0000   0.0000   0.0000   0.0000   0.0000   0.0000   0.0000
     0.0000   0.0000   0.0000   0.0000   0.0000   0.0000   0.0000   0.0000
     0.0000   0.0000   0.0000   0.0000   0.0000   0.0000   0.0000   0.0000

          k = 0.0000 0.3333 0.3333 ( 24236 PWs)   bands (ev):

    -8.1719  -7.4221  -7.2087  -6.5774  -5.9738  -5.6565  -5.3298  -4.9898
    -4.9740  -4.8387  -4.4736  -4.2384  -4.2033  -3.8998  -3.5252  -3.4984
    -2.7757  -2.3682  -2.3126  -2.3052  -2.1663  -2.1651  -2.0104  -1.8617
    -1.4650  -1.2981  -1.0631  -0.8783  -0.4952  -0.0121   0.0749   0.1418
     0.2003   0.4984   0.7147   1.1952   1.2027   1.3270   1.3990   1.4104
     1.4683   1.4986   1.9655   2.1051   2.1769   2.4420   2.7444   2.8593
     2.9927   3.5379   3.6660   3.6727   3.7990   3.8247   4.0000   4.0476
     4.1516   4.5960   4.6711   4.8444   5.0446   5.0452   5.1697   5.3234
     5.3674   5.6146   5.6454   5.7217   5.7714   5.9494   6.0358   6.0998
     6.1537   6.2594   6.3056   6.5122   6.5456   6.6167   6.6792   6.8698
     6.9327   6.9639   7.0568   7.0701   7.2603   7.3061   7.5323   7.7225
     7.9577   7.9971   8.0836   8.0931   8.1367   8.2486   8.2936   8.3426
     8.3744   8.4253   8.5648   8.6502   8.7290   8.7332   8.8864   8.9070
     9.0948   9.2190   9.2616   9.3425   9.4913   9.5027   9.6023   9.6589
     9.7442   9.8214   9.9320  10.0785  10.0893  10.1516  10.4494  10.7790
    11.0794  11.2510  11.5831  11.8505  12.2633  14.0211  15.6426  15.9410
    18.0491  18.2038  18.2525  18.3192  18.3724  18.8108  18.8770  18.9748
    19.1997  19.2360  19.4707  19.4990  19.7089  19.8242  19.9908  20.0241
    20.2077  20.4516  20.4879  20.5183  20.5834  20.6030  20.6288  20.6540

     occupation numbers 
     1.0000   1.0000   1.0000   1.0000   1.0000   1.0000   1.0000   1.0000
     1.0000   1.0000   1.0000   1.0000   1.0000   1.0000   1.0000   1.0000
     1.0000   1.0000   1.0000   1.0000   1.0000   1.0000   1.0000   1.0000
     1.0000   1.0000   1.0000   1.0000   1.0000   1.0000   1.0000   1.0000
     1.0000   1.0000   1.0000   1.0000   1.0000   1.0000   1.0000   1.0000
     1.0000   1.0000   1.0000   1.0000   1.0000   1.0000   1.0000   1.0000
     1.0000   1.0000   1.0000   1.0000   1.0000   1.0000   1.0000   1.0000
     1.0000   1.0000   1.0000   1.0000   1.0000   1.0000   1.0000   1.0000
     1.0000   1.0000   1.0000   1.0000   1.0000   1.0000   1.0000   1.0000
     1.0000   1.0000   1.0000   1.0000   1.0000   1.0000   1.0000   1.0000
     1.0000   1.0000   1.0000   1.0000   1.0000   1.0000   1.0000   1.0000
     1.0000   1.0000   1.0000   1.0000   1.0000   1.0000   1.0000   1.0000
     1.0000   1.0000   1.0000   1.0000   1.0000   1.0000   1.0000   1.0000
     1.0000   1.0000   1.0000   1.0000   1.0000   1.0000   1.0000   1.0000
     1.0000   1.0000   1.0000   1.0000   1.0000   1.0000   1.0000   1.0000
     1.0000   1.0000   1.0000   1.0000   1.0000   0.0000   1.0000   0.0000
     0.0000   0.0000   0.0000   0.0000   0.0000   0.0000   0.0000   0.0000
     0.0000   0.0000   0.0000   0.0000   0.0000   0.0000   0.0000   0.0000
     0.0000   0.0000   0.0000   0.0000   0.0000   0.0000   0.0000   0.0000

          k = 0.3333 0.3333 0.3333 ( 24303 PWs)   bands (ev):

    -8.0016  -7.2521  -6.9617  -6.9617  -6.3016  -6.1992  -6.1992  -5.4322
    -4.2144  -4.0161  -4.0161  -3.5384  -3.3630  -3.3630  -3.3210  -3.3210
    -3.2856  -2.8963  -2.6263  -2.6263  -1.9347  -1.9112  -1.9112  -1.5281
    -1.4456  -1.4456  -1.3754  -1.3754  -1.3187  -1.1368  -1.1368   0.1482
     0.8708   0.8708   0.9933   0.9933   1.0157   1.3031   1.8400   1.8400
     1.8858   1.9339   2.0224   2.0224   2.5787   2.5787   2.6182   2.7238
     2.7508   2.7508   3.2106   3.2106   3.5563   4.1184   4.3220   4.3220
     4.8557   4.9253   4.9253   4.9648   5.1040   5.1040   5.1849   5.3291
     5.3291   5.4268   5.5134   5.5134   5.5688   5.5688   5.6526   6.4264
     6.7071   6.7071   6.9471   7.0112   7.0112   7.0146   7.0987   7.0987
     7.2181   7.2181   7.2569   7.2709   7.2709   7.2867   7.3858   7.3858
     7.3909   7.5249   7.7675   7.7675   7.9366   7.9366   7.9834   8.0174
     8.2146   8.2146   8.3151   8.3151   8.3219   8.4492   8.5199   8.5199
     8.7082   8.7082   8.8535   9.0956   9.1586   9.5659   9.5659   9.8432
     9.8432  10.5033  10.5033  10.5252  10.6195  10.9835  10.9835  11.2982
    11.2982  11.3110  11.5733  11.6867  11.6867  13.8644  15.9540  15.9540
    18.0941  18.2491  18.2491  18.4681  18.6664  18.6664  19.2073  19.3806
    19.3806  19.5612  19.5612  19.6012  19.6328  19.6328  19.6639  19.7622
    19.7622  19.8910  19.9385  19.9385  20.0277  20.0277  20.0424  20.1744

     occupation numbers 
     1.0000   1.0000   1.0000   1.0000   1.0000   1.0000   1.0000   1.0000
     1.0000   1.0000   1.0000   1.0000   1.0000   1.0000   1.0000   1.0000
     1.0000   1.0000   1.0000   1.0000   1.0000   1.0000   1.0000   1.0000
     1.0000   1.0000   1.0000   1.0000   1.0000   1.0000   1.0000   1.0000
     1.0000   1.0000   1.0000   1.0000   1.0000   1.0000   1.0000   1.0000
     1.0000   1.0000   1.0000   1.0000   1.0000   1.0000   1.0000   1.0000
     1.0000   1.0000   1.0000   1.0000   1.0000   1.0000   1.0000   1.0000
     1.0000   1.0000   1.0000   1.0000   1.0000   1.0000   1.0000   1.0000
     1.0000   1.0000   1.0000   1.0000   1.0000   1.0000   1.0000   1.0000
     1.0000   1.0000   1.0000   1.0000   1.0000   1.0000   1.0000   1.0000
     1.0000   1.0000   1.0000   1.0000   1.0000   1.0000   1.0000   1.0000
     1.0000   1.0000   1.0000   1.0000   1.0000   1.0000   1.0000   1.0000
     1.0000   1.0000   1.0000   1.0000   1.0000   1.0000   1.0000   1.0000
     1.0000   1.0000   1.0000   1.0000   1.0000   1.0000   1.0000   1.0000
     1.0000   1.0000   1.0000   1.0000   1.0000   1.0000   1.0000   1.0000
     1.0000   1.0000   1.0000   1.0000   1.0000   0.0000   1.0000   0.0000
     0.0000   0.0000   0.0000   0.0000   0.0000   0.0000   0.0000   0.0000
     0.0000   0.0000   0.0000   0.0000   0.0000   0.0000   0.0000   0.0000
     0.0000   0.0000   0.0000   0.0000   0.0000   0.0000   0.0000   0.0000

          k =-0.3333 0.0000 0.3333 ( 24236 PWs)   bands (ev):

    -8.1573  -7.5361  -7.0805  -6.5647  -6.0210  -5.6648  -5.3609  -5.0322
    -4.8991  -4.7356  -4.5185  -4.2780  -4.1944  -4.0323  -3.5721  -3.3020
    -2.7696  -2.4091  -2.3584  -2.2719  -2.1684  -2.1253  -2.0817  -1.6556
    -1.5623  -1.2943  -1.0941  -0.9458  -0.5509  -0.0090   0.0886   0.1403
     0.3046   0.5214   0.9362   1.0560   1.2070   1.2304   1.2635   1.4030
     1.5053   1.6225   1.8883   1.9030   2.1488   2.6307   2.7030   2.9015
     2.9946   3.5123   3.6665   3.7165   3.7772   3.9236   4.0470   4.1488
     4.2289   4.4251   4.6028   4.8346   4.9722   5.0212   5.2035   5.2712
     5.4299   5.5813   5.6511   5.7133   5.8233   6.0224   6.0860   6.1491
     6.1938   6.2510   6.2999   6.4372   6.4857   6.6357   6.6555   6.8191
     6.9046   6.9769   7.0398   7.1358   7.2588   7.4204   7.5349   7.6800
     7.9088   7.9215   7.9677   8.0790   8.1963   8.2325   8.2783   8.3017
     8.3870   8.4645   8.5757   8.6056   8.7624   8.7748   8.9194   8.9898
     9.1044   9.1580   9.2612   9.3513   9.4698   9.5254   9.5286   9.6913
     9.7500   9.7996   9.9595  10.0648  10.1000  10.1465  10.5250  10.9418
    10.9747  11.1984  11.5049  11.7279  12.3627  14.2505  15.5393  15.8501
    18.0196  18.2161  18.2717  18.3262  18.3910  18.7945  18.9456  19.1216
    19.1328  19.2901  19.3938  19.4995  19.7231  19.8733  19.8814  20.0417
    20.2395  20.3563  20.4197  20.5143  20.5628  20.5907  20.6535  20.7029

     occupation numbers 
     1.0000   1.0000   1.0000   1.0000   1.0000   1.0000   1.0000   1.0000
     1.0000   1.0000   1.0000   1.0000   1.0000   1.0000   1.0000   1.0000
     1.0000   1.0000   1.0000   1.0000   1.0000   1.0000   1.0000   1.0000
     1.0000   1.0000   1.0000   1.0000   1.0000   1.0000   1.0000   1.0000
     1.0000   1.0000   1.0000   1.0000   1.0000   1.0000   1.0000   1.0000
     1.0000   1.0000   1.0000   1.0000   1.0000   1.0000   1.0000   1.0000
     1.0000   1.0000   1.0000   1.0000   1.0000   1.0000   1.0000   1.0000
     1.0000   1.0000   1.0000   1.0000   1.0000   1.0000   1.0000   1.0000
     1.0000   1.0000   1.0000   1.0000   1.0000   1.0000   1.0000   1.0000
     1.0000   1.0000   1.0000   1.0000   1.0000   1.0000   1.0000   1.0000
     1.0000   1.0000   1.0000   1.0000   1.0000   1.0000   1.0000   1.0000
     1.0000   1.0000   1.0000   1.0000   1.0000   1.0000   1.0000   1.0000
     1.0000   1.0000   1.0000   1.0000   1.0000   1.0000   1.0000   1.0000
     1.0000   1.0000   1.0000   1.0000   1.0000   1.0000   1.0000   1.0000
     1.0000   1.0000   1.0000   1.0000   1.0000   1.0000   1.0000   1.0000
     1.0000   1.0000   1.0000   1.0000   1.0000   0.0000   1.0000   0.0000
     0.0000   0.0000   0.0000   0.0000   0.0000   0.0000   0.0000   0.0000
     0.0000   0.0000   0.0000   0.0000   0.0000   0.0000   0.0000   0.0000
     0.0000   0.0000   0.0000   0.0000   0.0000   0.0000   0.0000   0.0000

          k = 0.3333-0.3333 0.3333 ( 24303 PWs)   bands (ev):

    -7.9761  -7.3886  -6.9623  -6.8050  -6.4715  -6.1975  -5.9554  -5.4793
    -4.5220  -4.0192  -3.9258  -3.6942  -3.4153  -3.3499  -3.3152  -3.1806
    -3.0528  -2.8686  -2.6572  -2.3835  -2.0634  -1.8793  -1.8323  -1.7106
    -1.4773  -1.4693  -1.4048  -1.3407  -1.3309  -1.1854  -1.0880  -0.0001
     0.7492   0.8892   0.9653   0.9987   1.0977   1.4500   1.7266   1.7922
     1.8768   1.9657   2.0651   2.2782   2.5975   2.6054   2.7028   2.7299
     2.7472   2.8233   2.9395   3.2549   3.5166   4.0199   4.2615   4.3328
     4.7907   4.8130   4.8767   5.0291   5.0323   5.0719   5.2182   5.2666
     5.2879   5.4421   5.4630   5.5446   5.7127   5.8251   5.8716   6.5058
     6.6446   6.7444   6.9305   6.9474   6.9762   7.0529   7.0886   7.1192
     7.1815   7.1821   7.2446   7.2791   7.2895   7.3535   7.3752   7.3817
     7.4059   7.4824   7.7605   7.7614   7.8516   7.9372   7.9679   7.9770
     8.1541   8.1821   8.2802   8.3128   8.3914   8.4214   8.4307   8.5398
     8.7216   8.7565   8.9792   9.0290   9.1870   9.5600   9.6168   9.6920
     9.9443  10.4079  10.5419  10.5420  10.6110  10.9640  10.9644  11.2191
    11.2480  11.3174  11.5003  11.7578  11.8217  14.2343  15.6188  15.9568
    18.0720  18.2808  18.3470  18.5426  18.6692  18.7561  19.1645  19.3803
    19.4509  19.5008  19.5349  19.5685  19.6316  19.6468  19.6728  19.7314
    19.7617  19.8099  19.9253  19.9294  19.9977  20.0025  20.0715  20.1786

     occupation numbers 
     1.0000   1.0000   1.0000   1.0000   1.0000   1.0000   1.0000   1.0000
     1.0000   1.0000   1.0000   1.0000   1.0000   1.0000   1.0000   1.0000
     1.0000   1.0000   1.0000   1.0000   1.0000   1.0000   1.0000   1.0000
     1.0000   1.0000   1.0000   1.0000   1.0000   1.0000   1.0000   1.0000
     1.0000   1.0000   1.0000   1.0000   1.0000   1.0000   1.0000   1.0000
     1.0000   1.0000   1.0000   1.0000   1.0000   1.0000   1.0000   1.0000
     1.0000   1.0000   1.0000   1.0000   1.0000   1.0000   1.0000   1.0000
     1.0000   1.0000   1.0000   1.0000   1.0000   1.0000   1.0000   1.0000
     1.0000   1.0000   1.0000   1.0000   1.0000   1.0000   1.0000   1.0000
     1.0000   1.0000   1.0000   1.0000   1.0000   1.0000   1.0000   1.0000
     1.0000   1.0000   1.0000   1.0000   1.0000   1.0000   1.0000   1.0000
     1.0000   1.0000   1.0000   1.0000   1.0000   1.0000   1.0000   1.0000
     1.0000   1.0000   1.0000   1.0000   1.0000   1.0000   1.0000   1.0000
     1.0000   1.0000   1.0000   1.0000   1.0000   1.0000   1.0000   1.0000
     1.0000   1.0000   1.0000   1.0000   1.0000   1.0000   1.0000   1.0000
     1.0000   1.0000   1.0000   1.0000   1.0000   0.0000   1.0000   0.0000
     0.0000   0.0000   0.0000   0.0000   0.0000   0.0000   0.0000   0.0000
     0.0000   0.0000   0.0000   0.0000   0.0000   0.0000   0.0000   0.0000
     0.0000   0.0000   0.0000   0.0000   0.0000   0.0000   0.0000   0.0000

     highest occupied, lowest unoccupied level (ev):    14.9072   13.8644

!    total energy              =    -724.69313796 Ry
     Harris-Foulkes estimate   =    -724.69313709 Ry
     estimated scf accuracy    <       0.00000091 Ry

     The total energy is the sum of the following terms:

     one-electron contribution =     232.45866214 Ry
     hartree contribution      =      69.41103473 Ry
     xc contribution           =    -226.42757494 Ry
     ewald contribution        =    -800.13525989 Ry

     total magnetization       =     2.00 Bohr mag/cell
     absolute magnetization    =     2.20 Bohr mag/cell

     convergence has been achieved in  10 iterations

     Writing output data file di.save
 
     init_run     :      1.23s CPU      1.65s WALL (       1 calls)
     electrons    :     27.85s CPU     28.33s WALL (       1 calls)

     Called by init_run:
     wfcinit      :      0.74s CPU      0.83s WALL (       1 calls)
     wfcinit:atom :      0.01s CPU      0.01s WALL (       2 calls)
     wfcinit:wfcr :      0.70s CPU      0.78s WALL (       2 calls)
     potinit      :      0.07s CPU      0.08s WALL (       1 calls)

     Called by electrons:
     c_bands      :     26.12s CPU     26.54s WALL (      10 calls)
     sum_band     :      1.17s CPU      1.18s WALL (      10 calls)
     v_of_rho     :      0.40s CPU      0.41s WALL (      11 calls)
     v_h          :      0.01s CPU      0.01s WALL (      11 calls)
     v_xc         :      0.39s CPU      0.40s WALL (      11 calls)
     mix_rho      :      0.07s CPU      0.08s WALL (      10 calls)

     Called by c_bands:
     init_us_2    :      0.19s CPU      0.19s WALL (      42 calls)
     cegterg      :     23.22s CPU     23.60s WALL (      20 calls)

     Called by sum_band:

     Called by *egterg:
     h_psi        :      9.25s CPU      9.40s WALL (     135 calls)
     g_psi        :      0.05s CPU      0.06s WALL (     113 calls)
     cdiaghg      :      9.85s CPU      9.89s WALL (     133 calls)
     cegterg:over :      1.81s CPU      1.82s WALL (     113 calls)
     cegterg:upda :      1.39s CPU      1.40s WALL (     113 calls)
     cegterg:last :      0.52s CPU      0.52s WALL (      20 calls)

     Called by h_psi:
     h_psi:pot    :      9.14s CPU      9.29s WALL (     135 calls)
     h_psi:calbec :      1.98s CPU      2.00s WALL (     135 calls)
     vloc_psi     :      5.10s CPU      5.20s WALL (     135 calls)
     add_vuspsi   :      2.06s CPU      2.08s WALL (     135 calls)

     General routines
     calbec       :      1.98s CPU      2.00s WALL (     135 calls)
     fft          :      0.12s CPU      0.34s WALL (     228 calls)
     fftw         :      5.44s CPU      5.46s WALL (   20496 calls)
 
     Parallel routines
     fft_scatter  :      1.60s CPU      1.58s WALL (   20724 calls)
 
     PWSCF        :    31.88s CPU        35.46s WALL

 
   This run was terminated on:  10:31:17  12May2020            

=------------------------------------------------------------------------------=
   JOB DONE.
=------------------------------------------------------------------------------=
