
     Program PWSCF v.6.1 (svn rev. 13369) starts on 30Aug2018 at 12:15: 6 

     This program is part of the open-source Quantum ESPRESSO suite
     for quantum simulation of materials; please cite
         "P. Giannozzi et al., J. Phys.:Condens. Matter 21 395502 (2009);
          URL http://www.quantum-espresso.org", 
     in publications or presentations arising from this work. More details at
     http://www.quantum-espresso.org/quote

     Parallel version (MPI), running on    32 processors
     K-points division:     npool     =       2
     R & G space division:  proc/nbgrp/npool/nimage =      16
     Waiting for input...
     Reading input from standard input

     Current dimensions of program PWSCF are:
     Max number of different atomic species (ntypx) = 10
     Max number of k-points (npk) =  40000
     Max angular momentum in pseudopotentials (lmaxx) =  3

     gamma-point specific algorithms are used

     Subspace diagonalization in iterative solution of the eigenvalue problem:
     a serial algorithm will be used

 
     Parallelization info
     --------------------
     sticks:   dense  smooth     PW     G-vecs:    dense   smooth      PW
     Min         626     626    156                71342    71342    8924
     Max         629     629    158                71354    71354    8934
     Sum       10021   10021   2515              1141599  1141599  142855
 


     bravais-lattice index     =            4
     lattice parameter (alat)  =      28.4285  a.u.
     unit-cell volume          =   27996.2197 (a.u.)^3
     number of atoms/cell      =           71
     number of atomic types    =            2
     number of electrons       =       285.00
     number of Kohn-Sham states=          151
     kinetic-energy cutoff     =      45.0000  Ry
     charge density cutoff     =     180.0000  Ry
     convergence threshold     =      1.0E-06
     mixing beta               =       0.7000
     number of iterations used =            8  plain     mixing
     Exchange-correlation      = PBE ( 1  4  3  4 0 0)
     nstep                     =           50


     celldm(1)=  28.428529  celldm(2)=   0.000000  celldm(3)=   1.407037
     celldm(4)=   0.000000  celldm(5)=   0.000000  celldm(6)=   0.000000

     crystal axes: (cart. coord. in units of alat)
               a(1) = (   1.000000   0.000000   0.000000 )  
               a(2) = (  -0.500000   0.866025   0.000000 )  
               a(3) = (   0.000000   0.000000   1.407037 )  

     reciprocal axes: (cart. coord. in units 2 pi/alat)
               b(1) = (  1.000000  0.577350  0.000000 )  
               b(2) = (  0.000000  1.154701  0.000000 )  
               b(3) = (  0.000000  0.000000  0.710713 )  


     PseudoPot. # 1 for B  read from file:
     /home/wufeng/programs/pseudo-ONCV-proj/B_ONCV_PBE-1.0.upf
     MD5 check sum: a9fd2462c33df863cd3ce8a66ea40380
     Pseudo is Norm-conserving, Zval =  3.0
     Generated using ONCVPSP code by D. R. Hamann
     Using radial grid of 1534 points,  4 beta functions with: 
                l(1) =   0
                l(2) =   0
                l(3) =   1
                l(4) =   1

     PseudoPot. # 2 for N  read from file:
     /home/wufeng/programs/pseudo-ONCV-proj/N_ONCV_PBE-1.0.upf
     MD5 check sum: 09890da6b2972017450f7114a6086fad
     Pseudo is Norm-conserving, Zval =  5.0
     Generated using ONCVPSP code by D. R. Hamann
     Using radial grid of 1058 points,  4 beta functions with: 
                l(1) =   0
                l(2) =   0
                l(3) =   1
                l(4) =   1

     atomic species   valence    mass     pseudopotential
        B              3.00    10.81100     B ( 1.00)
        N              5.00    14.00670     N ( 1.00)

     Starting magnetic structure 
     atomic species   magnetization
        B            1.000
        N            0.000

      2 Sym. Ops. (no inversion) found


                                    s                        frac. trans.

      isym =  1     identity                                     

 cryst.   s( 1) = (     1          0          0      )
                  (     0          1          0      )
                  (     0          0          1      )

 cart.    s( 1) = (  1.0000000  0.0000000  0.0000000 )
                  (  0.0000000  1.0000000  0.0000000 )
                  (  0.0000000  0.0000000  1.0000000 )


      isym =  2     inv. 180 deg rotation - cart. axis [0,0,1]   

 cryst.   s( 2) = (     1          0          0      )
                  (     0          1          0      )
                  (     0          0         -1      )

 cart.    s( 2) = (  1.0000000  0.0000000  0.0000000 )
                  (  0.0000000  1.0000000  0.0000000 )
                  (  0.0000000  0.0000000 -1.0000000 )


     point group C_s (m)    
     there are  2 classes
     the character table:

       E     s    
A'     1.00  1.00
A''    1.00 -1.00

     the symmetry operations in each class and the name of the first element:

     E        1
          identity                                               
     s        2
          inv. 180 deg rotation - cart. axis [0,0,1]             

   Cartesian axes

     site n.     atom                  positions (alat units)
         1           B   tau(   1) = (   0.0847220   0.0481792   0.0000000  )
         2           B   tau(   2) = (   0.0016552   0.1915065   0.0000000  )
         3           B   tau(   3) = (  -0.0840700   0.3354423   0.0000000  )
         4           B   tau(   4) = (  -0.1697016   0.4797411   0.0000000  )
         5           B   tau(   5) = (  -0.2531040   0.6239658   0.0000000  )
         6           B   tau(   6) = (  -0.3347998   0.7684562   0.0000000  )
         7           B   tau(   7) = (   0.2505326   0.0503107   0.0000000  )
         8           B   tau(   8) = (   0.1708608   0.1982851   0.0000000  )
         9           B   tau(   9) = (   0.0817536   0.3373414   0.0000000  )
        10           B   tau(  10) = (  -0.0041807   0.4808770   0.0000000  )
        11           B   tau(  11) = (  -0.0868009   0.6252373   0.0000000  )
        12           B   tau(  12) = (  -0.1688315   0.7699815   0.0000000  )
        13           B   tau(  13) = (   0.4160703   0.0489591   0.0000000  )
        14           B   tau(  14) = (   0.3357626   0.1980948   0.0000000  )
        15           B   tau(  15) = (   0.2530533   0.3542664   0.0000000  )
        16           B   tau(  16) = (   0.1598302   0.4828258   0.0000000  )
        17           B   tau(  17) = (   0.0795559   0.6259404   0.0000000  )
        18           B   tau(  18) = (  -0.0022718   0.7698025   0.0000000  )
        19           B   tau(  19) = (   0.5841260   0.0456739   0.0000000  )
        20           B   tau(  20) = (   0.5048228   0.1892082   0.0000000  )
        21           N   tau(  21) = (   0.4225323   0.3312267   0.0000000  )
        22           B   tau(  22) = (   0.3177878   0.4664114   0.0000000  )
        23           B   tau(  23) = (   0.2467774   0.6232065   0.0000000  )
        24           B   tau(  24) = (   0.1655733   0.7678573   0.0000000  )
        25           B   tau(  25) = (   0.7514745   0.0445204   0.0000000  )
        26           B   tau(  26) = (   0.6701564   0.1882279   0.0000000  )
        27           B   tau(  27) = (   0.5866519   0.3309170   0.0000000  )
        28           B   tau(  28) = (   0.4944168   0.4729067   0.0000000  )
        29           B   tau(  29) = (   0.4117915   0.6155950   0.0000000  )
        30           B   tau(  30) = (   0.3330495   0.7654853   0.0000000  )
        31           B   tau(  31) = (   0.9178242   0.0452228   0.0000000  )
        32           B   tau(  32) = (   0.8353019   0.1897246   0.0000000  )
        33           B   tau(  33) = (   0.7505974   0.3339871   0.0000000  )
        34           B   tau(  34) = (   0.6637697   0.4779147   0.0000000  )
        35           B   tau(  35) = (   0.5798156   0.6205987   0.0000000  )
        36           B   tau(  36) = (   0.4987047   0.7652452   0.0000000  )
        37           N   tau(  37) = (   0.0009787   0.0949223   0.0000000  )
        38           N   tau(  38) = (  -0.0821736   0.2389754   0.0000000  )
        39           N   tau(  39) = (  -0.1675411   0.3832907   0.0000000  )
        40           N   tau(  40) = (  -0.2533779   0.5273969   0.0000000  )
        41           N   tau(  41) = (  -0.3367008   0.6711574   0.0000000  )
        42           N   tau(  42) = (  -0.4177577   0.8163131   0.0000000  )
        43           N   tau(  43) = (   0.1683262   0.0996797   0.0000000  )
        44           N   tau(  44) = (   0.0846472   0.2413865   0.0000000  )
        45           N   tau(  45) = (  -0.0021005   0.3846488   0.0000000  )
        46           N   tau(  46) = (  -0.0872100   0.5288166   0.0000000  )
        47           N   tau(  47) = (  -0.1699656   0.6733043   0.0000000  )
        48           N   tau(  48) = (  -0.2514991   0.8187900   0.0000000  )
        49           N   tau(  49) = (   0.3340625   0.1000856   0.0000000  )
        50           N   tau(  50) = (   0.2553988   0.2521242   0.0000000  )
        51           N   tau(  51) = (   0.1628642   0.3873517   0.0000000  )
        52           N   tau(  52) = (   0.0777857   0.5302557   0.0000000  )
        53           N   tau(  53) = (  -0.0035340   0.6738070   0.0000000  )
        54           N   tau(  54) = (  -0.0853517   0.8185159   0.0000000  )
        55           N   tau(  55) = (   0.5011071   0.0941526   0.0000000  )
        56           N   tau(  56) = (   0.4240925   0.2402616   0.0000000  )
        57           N   tau(  57) = (   0.2440068   0.5279339   0.0000000  )
        58           N   tau(  58) = (   0.1639411   0.6722878   0.0000000  )
        59           N   tau(  59) = (   0.0823449   0.8161356   0.0000000  )
        60           N   tau(  60) = (   0.6683817   0.0925339   0.0000000  )
        61           N   tau(  61) = (   0.5876302   0.2358581   0.0000000  )
        62           N   tau(  62) = (   0.5020858   0.3753455   0.0000000  )
        63           N   tau(  63) = (   0.4074201   0.5154810   0.0000000  )
        64           N   tau(  64) = (   0.3313212   0.6686530   0.0000000  )
        65           N   tau(  65) = (   0.2500926   0.8144395   0.0000000  )
        66           N   tau(  66) = (   0.8346960   0.0932962   0.0000000  )
        67           N   tau(  67) = (   0.7521558   0.2376108   0.0000000  )
        68           N   tau(  68) = (   0.6671246   0.3816584   0.0000000  )
        69           N   tau(  69) = (   0.5784688   0.5233399   0.0000000  )
        70           N   tau(  70) = (   0.4959356   0.6671171   0.0000000  )
        71           N   tau(  71) = (   0.4163376   0.8143729   0.0000000  )

   Crystallographic axes

     site n.     atom                  positions (cryst. coord.)
         1           B   tau(   1) = (  0.1125383  0.0556325  0.0000000  )
         2           B   tau(   2) = (  0.1122215  0.2211327  0.0000000  )
         3           B   tau(   3) = (  0.1095977  0.3873354  0.0000000  )
         4           B   tau(   4) = (  0.1072771  0.5539574  0.0000000  )
         5           B   tau(   5) = (  0.1071428  0.7204936  0.0000000  )
         6           B   tau(   6) = (  0.1088686  0.8873368  0.0000000  )
         7           B   tau(   7) = (  0.2795795  0.0580938  0.0000000  )
         8           B   tau(   8) = (  0.2853407  0.2289599  0.0000000  )
         9           B   tau(   9) = (  0.2765177  0.3895283  0.0000000  )
        10           B   tau(  10) = (  0.2734538  0.5552690  0.0000000  )
        11           B   tau(  11) = (  0.2741801  0.7219619  0.0000000  )
        12           B   tau(  12) = (  0.2757175  0.8890980  0.0000000  )
        13           B   tau(  13) = (  0.4443369  0.0565331  0.0000000  )
        14           B   tau(  14) = (  0.4501327  0.2287401  0.0000000  )
        15           B   tau(  15) = (  0.4575891  0.4090717  0.0000000  )
        16           B   tau(  16) = (  0.4385898  0.5575193  0.0000000  )
        17           B   tau(  17) = (  0.4409428  0.7227738  0.0000000  )
        18           B   tau(  18) = (  0.4421738  0.8888913  0.0000000  )
        19           B   tau(  19) = (  0.6104959  0.0527397  0.0000000  )
        20           B   tau(  20) = (  0.6140622  0.2184789  0.0000000  )
        21           N   tau(  21) = (  0.6137662  0.3824676  0.0000000  )
        22           B   tau(  22) = (  0.5870705  0.5385655  0.0000000  )
        23           B   tau(  23) = (  0.6065858  0.7196169  0.0000000  )
        24           B   tau(  24) = (  0.6088959  0.8866452  0.0000000  )
        25           B   tau(  25) = (  0.7771783  0.0514077  0.0000000  )
        26           B   tau(  26) = (  0.7788299  0.2173469  0.0000000  )
        27           B   tau(  27) = (  0.7777069  0.3821100  0.0000000  )
        28           B   tau(  28) = (  0.7674497  0.5460656  0.0000000  )
        29           B   tau(  29) = (  0.7672055  0.7108279  0.0000000  )
        30           B   tau(  30) = (  0.7750026  0.8839062  0.0000000  )
        31           B   tau(  31) = (  0.9439336  0.0522188  0.0000000  )
        32           B   tau(  32) = (  0.9448394  0.2190751  0.0000000  )
        33           B   tau(  33) = (  0.9434249  0.3856551  0.0000000  )
        34           B   tau(  34) = (  0.9396938  0.5518483  0.0000000  )
        35           B   tau(  35) = (  0.9381184  0.7166056  0.0000000  )
        36           B   tau(  36) = (  0.9405192  0.8836290  0.0000000  )
        37           N   tau(  37) = (  0.0557821  0.1096069  0.0000000  )
        38           N   tau(  38) = (  0.0557990  0.2759450  0.0000000  )
        39           N   tau(  39) = (  0.0537519  0.4425860  0.0000000  )
        40           N   tau(  40) = (  0.0511148  0.6089855  0.0000000  )
        41           N   tau(  41) = (  0.0507921  0.7749858  0.0000000  )
        42           N   tau(  42) = (  0.0535408  0.9425971  0.0000000  )
        43           N   tau(  43) = (  0.2258763  0.1151002  0.0000000  )
        44           N   tau(  44) = (  0.2240118  0.2787291  0.0000000  )
        45           N   tau(  45) = (  0.2199766  0.4441542  0.0000000  )
        46           N   tau(  46) = (  0.2181024  0.6106248  0.0000000  )
        47           N   tau(  47) = (  0.2187668  0.7774648  0.0000000  )
        48           N   tau(  48) = (  0.2212295  0.9454572  0.0000000  )
        49           N   tau(  49) = (  0.3918470  0.1155690  0.0000000  )
        50           N   tau(  50) = (  0.4009628  0.2911279  0.0000000  )
        51           N   tau(  51) = (  0.3865018  0.4472752  0.0000000  )
        52           N   tau(  52) = (  0.3839290  0.6122865  0.0000000  )
        53           N   tau(  53) = (  0.3854887  0.7780453  0.0000000  )
        54           N   tau(  54) = (  0.3872187  0.9451407  0.0000000  )
        55           N   tau(  55) = (  0.5554661  0.1087180  0.0000000  )
        56           N   tau(  56) = (  0.5628076  0.2774302  0.0000000  )
        57           N   tau(  57) = (  0.5488096  0.6096056  0.0000000  )
        58           N   tau(  58) = (  0.5520867  0.7762910  0.0000000  )
        59           N   tau(  59) = (  0.5535410  0.9423922  0.0000000  )
        60           N   tau(  60) = (  0.7218061  0.1068490  0.0000000  )
        61           N   tau(  61) = (  0.7238030  0.2723455  0.0000000  )
        62           N   tau(  62) = (  0.7187916  0.4334116  0.0000000  )
        63           N   tau(  63) = (  0.7050332  0.5952262  0.0000000  )
        64           N   tau(  64) = (  0.7173682  0.7720940  0.0000000  )
        65           N   tau(  65) = (  0.7203094  0.9404337  0.0000000  )
        66           N   tau(  66) = (  0.8885606  0.1077291  0.0000000  )
        67           N   tau(  67) = (  0.8893405  0.2743694  0.0000000  )
        68           N   tau(  68) = (  0.8874752  0.4407012  0.0000000  )
        69           N   tau(  69) = (  0.8806192  0.6043009  0.0000000  )
        70           N   tau(  70) = (  0.8810958  0.7703205  0.0000000  )
        71           N   tau(  71) = (  0.8865160  0.9403568  0.0000000  )

     number of k points=     1
                       cart. coord. in units 2pi/alat
        k(    1) = (   0.0000000   0.0000000   0.0000000), wk =   1.0000000

                       cryst. coord.
        k(    1) = (   0.0000000   0.0000000   0.0000000), wk =   1.0000000

     Dense  grid:   570800 G-vectors     FFT dimensions: ( 125, 125, 180)

     Occupations read from input 

      Spin-up

        1.0000   1.0000   1.0000   1.0000   1.0000   1.0000   1.0000   1.0000
        1.0000   1.0000   1.0000   1.0000   1.0000   1.0000   1.0000   1.0000
        1.0000   1.0000   1.0000   1.0000   1.0000   1.0000   1.0000   1.0000
        1.0000   1.0000   1.0000   1.0000   1.0000   1.0000   1.0000   1.0000
        1.0000   1.0000   1.0000   1.0000   1.0000   1.0000   1.0000   1.0000
        1.0000   1.0000   1.0000   1.0000   1.0000   1.0000   1.0000   1.0000
        1.0000   1.0000   1.0000   1.0000   1.0000   1.0000   1.0000   1.0000
        1.0000   1.0000   1.0000   1.0000   1.0000   1.0000   1.0000   1.0000
        1.0000   1.0000   1.0000   1.0000   1.0000   1.0000   1.0000   1.0000
        1.0000   1.0000   1.0000   1.0000   1.0000   1.0000   1.0000   1.0000
        1.0000   1.0000   1.0000   1.0000   1.0000   1.0000   1.0000   1.0000
        1.0000   1.0000   1.0000   1.0000   1.0000   1.0000   1.0000   1.0000
        1.0000   1.0000   1.0000   1.0000   1.0000   1.0000   1.0000   1.0000
        1.0000   1.0000   1.0000   1.0000   1.0000   1.0000   1.0000   1.0000
        1.0000   1.0000   1.0000   1.0000   1.0000   1.0000   1.0000   1.0000
        1.0000   1.0000   1.0000   1.0000   1.0000   1.0000   1.0000   1.0000
        1.0000   1.0000   1.0000   1.0000   1.0000   1.0000   1.0000   1.0000
        1.0000   1.0000   1.0000   1.0000   1.0000   1.0000   0.0000   1.0000
        0.0000   0.0000   0.0000   0.0000   0.0000   0.0000   0.0000

      Spin-down

        1.0000   1.0000   1.0000   1.0000   1.0000   1.0000   1.0000   1.0000
        1.0000   1.0000   1.0000   1.0000   1.0000   1.0000   1.0000   1.0000
        1.0000   1.0000   1.0000   1.0000   1.0000   1.0000   1.0000   1.0000
        1.0000   1.0000   1.0000   1.0000   1.0000   1.0000   1.0000   1.0000
        1.0000   1.0000   1.0000   1.0000   1.0000   1.0000   1.0000   1.0000
        1.0000   1.0000   1.0000   1.0000   1.0000   1.0000   1.0000   1.0000
        1.0000   1.0000   1.0000   1.0000   1.0000   1.0000   1.0000   1.0000
        1.0000   1.0000   1.0000   1.0000   1.0000   1.0000   1.0000   1.0000
        1.0000   1.0000   1.0000   1.0000   1.0000   1.0000   1.0000   1.0000
        1.0000   1.0000   1.0000   1.0000   1.0000   1.0000   1.0000   1.0000
        1.0000   1.0000   1.0000   1.0000   1.0000   1.0000   1.0000   1.0000
        1.0000   1.0000   1.0000   1.0000   1.0000   1.0000   1.0000   1.0000
        1.0000   1.0000   1.0000   1.0000   1.0000   1.0000   1.0000   1.0000
        1.0000   1.0000   1.0000   1.0000   1.0000   1.0000   1.0000   1.0000
        1.0000   1.0000   1.0000   1.0000   1.0000   1.0000   1.0000   1.0000
        1.0000   1.0000   1.0000   1.0000   1.0000   1.0000   1.0000   1.0000
        1.0000   1.0000   1.0000   1.0000   1.0000   1.0000   1.0000   1.0000
        1.0000   1.0000   1.0000   1.0000   1.0000   1.0000   0.0000   0.0000
        0.0000   0.0000   0.0000   0.0000   0.0000   0.0000   0.0000

     Estimated max dynamical RAM per process >     141.98MB

     Estimated total allocated dynamical RAM >    4543.48MB
     Generating pointlists ...
     new r_m :   0.0391 (alat units)  1.1113 (a.u.) for type    1
     new r_m :   0.0375 (alat units)  1.0668 (a.u.) for type    2

     Initial potential from superposition of free atoms
     Check: negative starting charge=(component1):   -0.009254
     Check: negative starting charge=(component2):   -0.011957

     starting charge  284.99101, renormalised to  285.00000

     negative rho (up, down):  9.254E-03 1.196E-02
     Starting wfc are  284 randomized atomic wfcs

     total cpu time spent up to now is        4.7 secs

     per-process dynamical memory:   124.4 Mb

     Self-consistent Calculation

     iteration #  1     ecut=    45.00 Ry     beta=0.70
     Davidson diagonalization with overlap
     ethr =  1.00E-02,  avg # of iterations =  2.0

     negative rho (up, down):  2.176E-03 2.915E-03

     total cpu time spent up to now is        8.1 secs

     total energy              =    -912.06633123 Ry
     Harris-Foulkes estimate   =    -917.30905822 Ry
     estimated scf accuracy    <      15.96409640 Ry

     total magnetization       =     1.00 Bohr mag/cell
     absolute magnetization    =    19.72 Bohr mag/cell

     iteration #  2     ecut=    45.00 Ry     beta=0.70
     Davidson diagonalization with overlap
     ethr =  5.60E-03,  avg # of iterations =  3.5

     negative rho (up, down):  1.213E-03 1.430E-03

     total cpu time spent up to now is       11.8 secs

     total energy              =    -916.31043357 Ry
     Harris-Foulkes estimate   =    -921.29513522 Ry
     estimated scf accuracy    <      11.72551175 Ry

     total magnetization       =     1.00 Bohr mag/cell
     absolute magnetization    =    14.54 Bohr mag/cell

     iteration #  3     ecut=    45.00 Ry     beta=0.70
     Davidson diagonalization with overlap
     ethr =  4.11E-03,  avg # of iterations =  3.5

     negative rho (up, down):  5.976E-04 7.000E-04

     total cpu time spent up to now is       15.3 secs

     total energy              =    -918.36967241 Ry
     Harris-Foulkes estimate   =    -918.85259965 Ry
     estimated scf accuracy    <       1.35891376 Ry

     total magnetization       =     1.00 Bohr mag/cell
     absolute magnetization    =     9.49 Bohr mag/cell

     iteration #  4     ecut=    45.00 Ry     beta=0.70
     Davidson diagonalization with overlap
     ethr =  4.77E-04,  avg # of iterations = 10.0

     negative rho (up, down):  1.601E-05 1.754E-05

     total cpu time spent up to now is       20.0 secs

     total energy              =    -918.70152941 Ry
     Harris-Foulkes estimate   =    -919.06660849 Ry
     estimated scf accuracy    <       1.58289696 Ry

     total magnetization       =     1.00 Bohr mag/cell
     absolute magnetization    =     7.51 Bohr mag/cell

     iteration #  5     ecut=    45.00 Ry     beta=0.70
     Davidson diagonalization with overlap
     ethr =  4.77E-04,  avg # of iterations =  5.5

     negative rho (up, down):  9.357E-07 9.958E-07

     total cpu time spent up to now is       23.1 secs

     total energy              =    -919.06516756 Ry
     Harris-Foulkes estimate   =    -919.12250746 Ry
     estimated scf accuracy    <       0.22099288 Ry

     total magnetization       =     1.00 Bohr mag/cell
     absolute magnetization    =     5.16 Bohr mag/cell

     iteration #  6     ecut=    45.00 Ry     beta=0.70
     Davidson diagonalization with overlap
     ethr =  7.75E-05,  avg # of iterations =  6.5

     negative rho (up, down):  2.063E-07 2.061E-07

     total cpu time spent up to now is       26.5 secs

     total energy              =    -919.07610887 Ry
     Harris-Foulkes estimate   =    -919.08671093 Ry
     estimated scf accuracy    <       0.06800675 Ry

     total magnetization       =     1.00 Bohr mag/cell
     absolute magnetization    =     4.44 Bohr mag/cell

     iteration #  7     ecut=    45.00 Ry     beta=0.70
     Davidson diagonalization with overlap
     ethr =  2.39E-05,  avg # of iterations = 10.0

     total cpu time spent up to now is       31.0 secs

     total energy              =    -919.09476198 Ry
     Harris-Foulkes estimate   =    -919.09014591 Ry
     estimated scf accuracy    <       0.00928335 Ry

     total magnetization       =     1.00 Bohr mag/cell
     absolute magnetization    =     3.26 Bohr mag/cell

     iteration #  8     ecut=    45.00 Ry     beta=0.70
     Davidson diagonalization with overlap
     ethr =  3.26E-06,  avg # of iterations = 12.5

     total cpu time spent up to now is       36.8 secs

     total energy              =    -919.10770171 Ry
     Harris-Foulkes estimate   =    -919.12741405 Ry
     estimated scf accuracy    <       1.32832292 Ry

     total magnetization       =     1.00 Bohr mag/cell
     absolute magnetization    =     2.10 Bohr mag/cell

     iteration #  9     ecut=    45.00 Ry     beta=0.70
     Davidson diagonalization with overlap
     ethr =  3.26E-06,  avg # of iterations =  2.5

     total cpu time spent up to now is       39.5 secs

     total energy              =    -919.11399207 Ry
     Harris-Foulkes estimate   =    -919.11113194 Ry
     estimated scf accuracy    <       0.35236639 Ry

     total magnetization       =     1.00 Bohr mag/cell
     absolute magnetization    =     3.42 Bohr mag/cell

     iteration # 10     ecut=    45.00 Ry     beta=0.70
     Davidson diagonalization with overlap
     ethr =  3.26E-06,  avg # of iterations =  1.5

     total cpu time spent up to now is       42.0 secs

     total energy              =    -919.11284346 Ry
     Harris-Foulkes estimate   =    -919.11410516 Ry
     estimated scf accuracy    <       0.33909576 Ry

     total magnetization       =     1.00 Bohr mag/cell
     absolute magnetization    =     3.44 Bohr mag/cell

     iteration # 11     ecut=    45.00 Ry     beta=0.70
     Davidson diagonalization with overlap
     ethr =  3.26E-06,  avg # of iterations =  4.5

     total cpu time spent up to now is       45.1 secs

     total energy              =    -919.12163950 Ry
     Harris-Foulkes estimate   =    -919.11419639 Ry
     estimated scf accuracy    <       0.28130964 Ry

     total magnetization       =     1.00 Bohr mag/cell
     absolute magnetization    =     3.56 Bohr mag/cell

     iteration # 12     ecut=    45.00 Ry     beta=0.70
     Davidson diagonalization with overlap
     ethr =  3.26E-06,  avg # of iterations =  4.0

     total cpu time spent up to now is       48.1 secs

     total energy              =    -919.08729715 Ry
     Harris-Foulkes estimate   =    -919.12312099 Ry
     estimated scf accuracy    <       0.25044217 Ry

     total magnetization       =     1.00 Bohr mag/cell
     absolute magnetization    =     3.45 Bohr mag/cell

     iteration # 13     ecut=    45.00 Ry     beta=0.70
     Davidson diagonalization with overlap
     ethr =  3.26E-06,  avg # of iterations =  7.0

     total cpu time spent up to now is       52.4 secs

     total energy              =    -919.09553306 Ry
     Harris-Foulkes estimate   =    -919.09829662 Ry
     estimated scf accuracy    <       0.20953081 Ry

     total magnetization       =     1.00 Bohr mag/cell
     absolute magnetization    =     2.92 Bohr mag/cell

     iteration # 14     ecut=    45.00 Ry     beta=0.70
     Davidson diagonalization with overlap
     ethr =  3.26E-06,  avg # of iterations =  2.0

     total cpu time spent up to now is       55.0 secs

     total energy              =    -919.05647341 Ry
     Harris-Foulkes estimate   =    -919.09571062 Ry
     estimated scf accuracy    <       0.19992146 Ry

     total magnetization       =     1.00 Bohr mag/cell
     absolute magnetization    =     2.93 Bohr mag/cell

     iteration # 15     ecut=    45.00 Ry     beta=0.70
     Davidson diagonalization with overlap
     ethr =  3.26E-06,  avg # of iterations =  5.0

     total cpu time spent up to now is       58.3 secs

     total energy              =    -919.08237420 Ry
     Harris-Foulkes estimate   =    -919.05655860 Ry
     estimated scf accuracy    <       0.22099076 Ry

     total magnetization       =     1.00 Bohr mag/cell
     absolute magnetization    =     2.71 Bohr mag/cell

     iteration # 16     ecut=    45.00 Ry     beta=0.70
     Davidson diagonalization with overlap
     ethr =  3.26E-06,  avg # of iterations =  4.5

     total cpu time spent up to now is       61.3 secs

     total energy              =    -919.06872045 Ry
     Harris-Foulkes estimate   =    -919.08258427 Ry
     estimated scf accuracy    <       0.17817167 Ry

     total magnetization       =     1.00 Bohr mag/cell
     absolute magnetization    =     2.83 Bohr mag/cell

     iteration # 17     ecut=    45.00 Ry     beta=0.70
     Davidson diagonalization with overlap
     ethr =  3.26E-06,  avg # of iterations =  3.5

     negative rho (up, down):  1.653E-05 1.120E-10

     total cpu time spent up to now is       64.1 secs

     total energy              =    -919.06525742 Ry
     Harris-Foulkes estimate   =    -919.06875870 Ry
     estimated scf accuracy    <       0.18808224 Ry

     total magnetization       =     1.00 Bohr mag/cell
     absolute magnetization    =     2.75 Bohr mag/cell

     iteration # 18     ecut=    45.00 Ry     beta=0.70
     Davidson diagonalization with overlap
     ethr =  3.26E-06,  avg # of iterations =  8.5

     negative rho (up, down):  1.291E-06 0.000E+00

     total cpu time spent up to now is       68.4 secs

     total energy              =    -919.07298297 Ry
     Harris-Foulkes estimate   =    -919.07041163 Ry
     estimated scf accuracy    <       0.13733452 Ry

     total magnetization       =     1.00 Bohr mag/cell
     absolute magnetization    =     2.67 Bohr mag/cell

     iteration # 19     ecut=    45.00 Ry     beta=0.70
     Davidson diagonalization with overlap
     ethr =  3.26E-06,  avg # of iterations =  7.5

     negative rho (up, down):  1.134E-08 0.000E+00

     total cpu time spent up to now is       72.1 secs

     total energy              =    -919.06819055 Ry
     Harris-Foulkes estimate   =    -919.07479331 Ry
     estimated scf accuracy    <       0.12165553 Ry

     total magnetization       =     1.00 Bohr mag/cell
     absolute magnetization    =     2.66 Bohr mag/cell

     iteration # 20     ecut=    45.00 Ry     beta=0.70
     Davidson diagonalization with overlap
     ethr =  3.26E-06,  avg # of iterations =  5.5

     total cpu time spent up to now is       75.3 secs

     total energy              =    -919.06332927 Ry
     Harris-Foulkes estimate   =    -919.06929269 Ry
     estimated scf accuracy    <       0.10495718 Ry

     total magnetization       =     1.00 Bohr mag/cell
     absolute magnetization    =     2.63 Bohr mag/cell

     iteration # 21     ecut=    45.00 Ry     beta=0.70
     Davidson diagonalization with overlap
     ethr =  3.26E-06,  avg # of iterations =  4.5

     total cpu time spent up to now is       78.4 secs

     total energy              =    -919.10082794 Ry
     Harris-Foulkes estimate   =    -919.08114142 Ry
     estimated scf accuracy    <       0.10170070 Ry

     total magnetization       =     1.00 Bohr mag/cell
     absolute magnetization    =     1.47 Bohr mag/cell

     iteration # 22     ecut=    45.00 Ry     beta=0.70
     Davidson diagonalization with overlap
     ethr =  3.26E-06,  avg # of iterations =  6.0

     total cpu time spent up to now is       82.4 secs

     total energy              =    -919.10329100 Ry
     Harris-Foulkes estimate   =    -919.10255418 Ry
     estimated scf accuracy    <       0.04457473 Ry

     total magnetization       =     1.00 Bohr mag/cell
     absolute magnetization    =     1.38 Bohr mag/cell

     iteration # 23     ecut=    45.00 Ry     beta=0.70
     Davidson diagonalization with overlap
     ethr =  3.26E-06,  avg # of iterations =  2.0

     total cpu time spent up to now is       85.0 secs

     total energy              =    -919.10480329 Ry
     Harris-Foulkes estimate   =    -919.10346494 Ry
     estimated scf accuracy    <       0.03959468 Ry

     total magnetization       =     1.00 Bohr mag/cell
     absolute magnetization    =     1.37 Bohr mag/cell

     iteration # 24     ecut=    45.00 Ry     beta=0.70
     Davidson diagonalization with overlap
     ethr =  3.26E-06,  avg # of iterations =  3.0

     total cpu time spent up to now is       87.8 secs

     total energy              =    -919.10305608 Ry
     Harris-Foulkes estimate   =    -919.10498131 Ry
     estimated scf accuracy    <       0.03234102 Ry

     total magnetization       =     1.00 Bohr mag/cell
     absolute magnetization    =     1.35 Bohr mag/cell

     iteration # 25     ecut=    45.00 Ry     beta=0.70
     Davidson diagonalization with overlap
     ethr =  3.26E-06,  avg # of iterations =  4.0

     total cpu time spent up to now is       90.8 secs

     total energy              =    -919.10337357 Ry
     Harris-Foulkes estimate   =    -919.10385695 Ry
     estimated scf accuracy    <       0.01568288 Ry

     total magnetization       =     1.00 Bohr mag/cell
     absolute magnetization    =     1.32 Bohr mag/cell

     iteration # 26     ecut=    45.00 Ry     beta=0.70
     Davidson diagonalization with overlap
     ethr =  3.26E-06,  avg # of iterations =  3.0

     total cpu time spent up to now is       93.6 secs

     total energy              =    -919.10273497 Ry
     Harris-Foulkes estimate   =    -919.10359044 Ry
     estimated scf accuracy    <       0.00985986 Ry

     total magnetization       =     1.00 Bohr mag/cell
     absolute magnetization    =     1.29 Bohr mag/cell

     iteration # 27     ecut=    45.00 Ry     beta=0.70
     Davidson diagonalization with overlap
     ethr =  3.26E-06,  avg # of iterations =  4.5

     total cpu time spent up to now is       96.4 secs

     total energy              =    -919.10309498 Ry
     Harris-Foulkes estimate   =    -919.10319564 Ry
     estimated scf accuracy    <       0.00335085 Ry

     total magnetization       =     1.00 Bohr mag/cell
     absolute magnetization    =     1.29 Bohr mag/cell

     iteration # 28     ecut=    45.00 Ry     beta=0.70
     Davidson diagonalization with overlap
     ethr =  1.18E-06,  avg # of iterations =  5.0

     total cpu time spent up to now is       99.3 secs

     total energy              =    -919.09797789 Ry
     Harris-Foulkes estimate   =    -919.10399845 Ry
     estimated scf accuracy    <       0.26332503 Ry

     total magnetization       =     1.00 Bohr mag/cell
     absolute magnetization    =     2.66 Bohr mag/cell

     iteration # 29     ecut=    45.00 Ry     beta=0.70
     Davidson diagonalization with overlap
     ethr =  1.18E-06,  avg # of iterations =  3.5

     total cpu time spent up to now is      102.2 secs

     total energy              =    -919.10342751 Ry
     Harris-Foulkes estimate   =    -919.10371248 Ry
     estimated scf accuracy    <       0.00585894 Ry

     total magnetization       =     1.00 Bohr mag/cell
     absolute magnetization    =     1.26 Bohr mag/cell

     iteration # 30     ecut=    45.00 Ry     beta=0.70
     Davidson diagonalization with overlap
     ethr =  1.18E-06,  avg # of iterations =  3.0

     total cpu time spent up to now is      105.0 secs

     total energy              =    -919.10346630 Ry
     Harris-Foulkes estimate   =    -919.10351986 Ry
     estimated scf accuracy    <       0.00346206 Ry

     total magnetization       =     1.00 Bohr mag/cell
     absolute magnetization    =     1.26 Bohr mag/cell

     iteration # 31     ecut=    45.00 Ry     beta=0.70
     Davidson diagonalization with overlap
     ethr =  1.18E-06,  avg # of iterations =  1.5

     total cpu time spent up to now is      107.5 secs

     total energy              =    -919.10359543 Ry
     Harris-Foulkes estimate   =    -919.10350720 Ry
     estimated scf accuracy    <       0.00227127 Ry

     total magnetization       =     1.00 Bohr mag/cell
     absolute magnetization    =     1.27 Bohr mag/cell

     iteration # 32     ecut=    45.00 Ry     beta=0.70
     Davidson diagonalization with overlap
     ethr =  7.97E-07,  avg # of iterations =  1.5

     total cpu time spent up to now is      110.1 secs

     total energy              =    -919.10367536 Ry
     Harris-Foulkes estimate   =    -919.10360411 Ry
     estimated scf accuracy    <       0.00273594 Ry

     total magnetization       =     1.00 Bohr mag/cell
     absolute magnetization    =     1.26 Bohr mag/cell

     iteration # 33     ecut=    45.00 Ry     beta=0.70
     Davidson diagonalization with overlap
     ethr =  7.97E-07,  avg # of iterations =  1.0

     total cpu time spent up to now is      112.6 secs

     total energy              =    -919.10389467 Ry
     Harris-Foulkes estimate   =    -919.10367871 Ry
     estimated scf accuracy    <       0.00287707 Ry

     total magnetization       =     1.00 Bohr mag/cell
     absolute magnetization    =     1.26 Bohr mag/cell

     iteration # 34     ecut=    45.00 Ry     beta=0.70
     Davidson diagonalization with overlap
     ethr =  7.97E-07,  avg # of iterations =  2.0

     total cpu time spent up to now is      115.3 secs

     total energy              =    -919.10402939 Ry
     Harris-Foulkes estimate   =    -919.10391875 Ry
     estimated scf accuracy    <       0.00394199 Ry

     total magnetization       =     1.00 Bohr mag/cell
     absolute magnetization    =     1.26 Bohr mag/cell

     iteration # 35     ecut=    45.00 Ry     beta=0.70
     Davidson diagonalization with overlap
     ethr =  7.97E-07,  avg # of iterations =  1.0

     total cpu time spent up to now is      117.8 secs

     total energy              =    -919.10431938 Ry
     Harris-Foulkes estimate   =    -919.10403810 Ry
     estimated scf accuracy    <       0.00453797 Ry

     total magnetization       =     1.00 Bohr mag/cell
     absolute magnetization    =     1.26 Bohr mag/cell

     iteration # 36     ecut=    45.00 Ry     beta=0.70
     Davidson diagonalization with overlap
     ethr =  7.97E-07,  avg # of iterations =  3.0

     total cpu time spent up to now is      120.5 secs

     total energy              =    -919.10523627 Ry
     Harris-Foulkes estimate   =    -919.10436541 Ry
     estimated scf accuracy    <       0.00639010 Ry

     total magnetization       =     1.00 Bohr mag/cell
     absolute magnetization    =     1.26 Bohr mag/cell

     iteration # 37     ecut=    45.00 Ry     beta=0.70
     Davidson diagonalization with overlap
     ethr =  7.97E-07,  avg # of iterations =  4.5

     total cpu time spent up to now is      123.5 secs

     total energy              =    -919.09924658 Ry
     Harris-Foulkes estimate   =    -919.10554519 Ry
     estimated scf accuracy    <       0.01298960 Ry

     total magnetization       =     1.00 Bohr mag/cell
     absolute magnetization    =     1.25 Bohr mag/cell

     iteration # 38     ecut=    45.00 Ry     beta=0.70
     Davidson diagonalization with overlap
     ethr =  7.97E-07,  avg # of iterations =  6.5

     total cpu time spent up to now is      127.8 secs

     total energy              =    -919.09459228 Ry
     Harris-Foulkes estimate   =    -919.11219397 Ry
     estimated scf accuracy    <       0.38682921 Ry

     total magnetization       =     1.00 Bohr mag/cell
     absolute magnetization    =     2.51 Bohr mag/cell

     iteration # 39     ecut=    45.00 Ry     beta=0.70
     Davidson diagonalization with overlap
     ethr =  7.97E-07,  avg # of iterations =  5.5

     total cpu time spent up to now is      131.5 secs

     total energy              =    -919.10349193 Ry
     Harris-Foulkes estimate   =    -919.10373463 Ry
     estimated scf accuracy    <       0.00305050 Ry

     total magnetization       =     1.00 Bohr mag/cell
     absolute magnetization    =     1.24 Bohr mag/cell

     iteration # 40     ecut=    45.00 Ry     beta=0.70
     Davidson diagonalization with overlap
     ethr =  7.97E-07,  avg # of iterations =  3.0

     total cpu time spent up to now is      134.2 secs

     total energy              =    -919.10319847 Ry
     Harris-Foulkes estimate   =    -919.10353660 Ry
     estimated scf accuracy    <       0.00189617 Ry

     total magnetization       =     1.00 Bohr mag/cell
     absolute magnetization    =     1.24 Bohr mag/cell

     iteration # 41     ecut=    45.00 Ry     beta=0.70
     Davidson diagonalization with overlap
     ethr =  6.65E-07,  avg # of iterations =  3.5

     total cpu time spent up to now is      137.0 secs

     total energy              =    -919.09469086 Ry
     Harris-Foulkes estimate   =    -919.10414785 Ry
     estimated scf accuracy    <       0.22100485 Ry

     total magnetization       =     1.00 Bohr mag/cell
     absolute magnetization    =     2.45 Bohr mag/cell

     iteration # 42     ecut=    45.00 Ry     beta=0.70
     Davidson diagonalization with overlap
     ethr =  6.65E-07,  avg # of iterations =  5.0

     total cpu time spent up to now is      140.4 secs

     total energy              =    -919.10423990 Ry
     Harris-Foulkes estimate   =    -919.10433572 Ry
     estimated scf accuracy    <       0.00618672 Ry

     total magnetization       =     1.00 Bohr mag/cell
     absolute magnetization    =     1.26 Bohr mag/cell

     iteration # 43     ecut=    45.00 Ry     beta=0.70
     Davidson diagonalization with overlap
     ethr =  6.65E-07,  avg # of iterations =  1.0

     total cpu time spent up to now is      142.9 secs

     total energy              =    -919.10433684 Ry
     Harris-Foulkes estimate   =    -919.10424805 Ry
     estimated scf accuracy    <       0.00578419 Ry

     total magnetization       =     1.00 Bohr mag/cell
     absolute magnetization    =     1.26 Bohr mag/cell

     iteration # 44     ecut=    45.00 Ry     beta=0.70
     Davidson diagonalization with overlap
     ethr =  6.65E-07,  avg # of iterations =  1.0

     total cpu time spent up to now is      145.4 secs

     total energy              =    -919.10412499 Ry
     Harris-Foulkes estimate   =    -919.10434120 Ry
     estimated scf accuracy    <       0.00623091 Ry

     total magnetization       =     1.00 Bohr mag/cell
     absolute magnetization    =     1.25 Bohr mag/cell

     iteration # 45     ecut=    45.00 Ry     beta=0.70
     Davidson diagonalization with overlap
     ethr =  6.65E-07,  avg # of iterations =  1.5

     total cpu time spent up to now is      148.0 secs

     total energy              =    -919.10416879 Ry
     Harris-Foulkes estimate   =    -919.10413831 Ry
     estimated scf accuracy    <       0.00526528 Ry

     total magnetization       =     1.00 Bohr mag/cell
     absolute magnetization    =     1.25 Bohr mag/cell

     iteration # 46     ecut=    45.00 Ry     beta=0.70
     Davidson diagonalization with overlap
     ethr =  6.65E-07,  avg # of iterations =  1.0

     total cpu time spent up to now is      150.5 secs

     total energy              =    -919.10403302 Ry
     Harris-Foulkes estimate   =    -919.10416976 Ry
     estimated scf accuracy    <       0.00539352 Ry

     total magnetization       =     1.00 Bohr mag/cell
     absolute magnetization    =     1.25 Bohr mag/cell

     iteration # 47     ecut=    45.00 Ry     beta=0.70
     Davidson diagonalization with overlap
     ethr =  6.65E-07,  avg # of iterations =  2.0

     total cpu time spent up to now is      153.2 secs

     total energy              =    -919.10425547 Ry
     Harris-Foulkes estimate   =    -919.10404108 Ry
     estimated scf accuracy    <       0.00468169 Ry

     total magnetization       =     1.00 Bohr mag/cell
     absolute magnetization    =     1.25 Bohr mag/cell

     iteration # 48     ecut=    45.00 Ry     beta=0.70
     Davidson diagonalization with overlap
     ethr =  6.65E-07,  avg # of iterations =  2.5

     total cpu time spent up to now is      155.9 secs

     total energy              =    -919.10425984 Ry
     Harris-Foulkes estimate   =    -919.10428274 Ry
     estimated scf accuracy    <       0.00586739 Ry

     total magnetization       =     1.00 Bohr mag/cell
     absolute magnetization    =     1.26 Bohr mag/cell

     iteration # 49     ecut=    45.00 Ry     beta=0.70
     Davidson diagonalization with overlap
     ethr =  6.65E-07,  avg # of iterations =  1.0

     total cpu time spent up to now is      158.4 secs

     total energy              =    -919.10418321 Ry
     Harris-Foulkes estimate   =    -919.10426098 Ry
     estimated scf accuracy    <       0.00579619 Ry

     total magnetization       =     1.00 Bohr mag/cell
     absolute magnetization    =     1.26 Bohr mag/cell

     iteration # 50     ecut=    45.00 Ry     beta=0.70
     Davidson diagonalization with overlap
     ethr =  6.65E-07,  avg # of iterations =  1.0

     total cpu time spent up to now is      160.9 secs

     total energy              =    -919.10135878 Ry
     Harris-Foulkes estimate   =    -919.10418502 Ry
     estimated scf accuracy    <       0.00542241 Ry

     total magnetization       =     1.00 Bohr mag/cell
     absolute magnetization    =     1.26 Bohr mag/cell

     iteration # 51     ecut=    45.00 Ry     beta=0.70
     Davidson diagonalization with overlap
     ethr =  6.65E-07,  avg # of iterations =  5.5

     total cpu time spent up to now is      164.8 secs

     total energy              =    -919.09680158 Ry
     Harris-Foulkes estimate   =    -919.10901909 Ry
     estimated scf accuracy    <       0.34482640 Ry

     total magnetization       =     1.00 Bohr mag/cell
     absolute magnetization    =     2.55 Bohr mag/cell

     iteration # 52     ecut=    45.00 Ry     beta=0.70
     Davidson diagonalization with overlap
     ethr =  6.65E-07,  avg # of iterations =  5.0

     total cpu time spent up to now is      168.5 secs

     total energy              =    -919.10363225 Ry
     Harris-Foulkes estimate   =    -919.10369529 Ry
     estimated scf accuracy    <       0.00284178 Ry

     total magnetization       =     1.00 Bohr mag/cell
     absolute magnetization    =     1.22 Bohr mag/cell

     iteration # 53     ecut=    45.00 Ry     beta=0.70
     Davidson diagonalization with overlap
     ethr =  6.65E-07,  avg # of iterations =  1.0

     total cpu time spent up to now is      171.0 secs

     total energy              =    -919.10353191 Ry
     Harris-Foulkes estimate   =    -919.10363941 Ry
     estimated scf accuracy    <       0.00256341 Ry

     total magnetization       =     1.00 Bohr mag/cell
     absolute magnetization    =     1.23 Bohr mag/cell

     iteration # 54     ecut=    45.00 Ry     beta=0.70
     Davidson diagonalization with overlap
     ethr =  6.65E-07,  avg # of iterations =  1.5

     total cpu time spent up to now is      173.5 secs

     total energy              =    -919.10352356 Ry
     Harris-Foulkes estimate   =    -919.10353992 Ry
     estimated scf accuracy    <       0.00207445 Ry

     total magnetization       =     1.00 Bohr mag/cell
     absolute magnetization    =     1.23 Bohr mag/cell

     iteration # 55     ecut=    45.00 Ry     beta=0.70
     Davidson diagonalization with overlap
     ethr =  6.65E-07,  avg # of iterations =  1.0

     total cpu time spent up to now is      176.0 secs

     total energy              =    -919.10355195 Ry
     Harris-Foulkes estimate   =    -919.10352462 Ry
     estimated scf accuracy    <       0.00199234 Ry

     total magnetization       =     1.00 Bohr mag/cell
     absolute magnetization    =     1.23 Bohr mag/cell

     iteration # 56     ecut=    45.00 Ry     beta=0.70
     Davidson diagonalization with overlap
     ethr =  6.65E-07,  avg # of iterations =  1.0

     total cpu time spent up to now is      178.5 secs

     total energy              =    -919.10353884 Ry
     Harris-Foulkes estimate   =    -919.10355258 Ry
     estimated scf accuracy    <       0.00210599 Ry

     total magnetization       =     1.00 Bohr mag/cell
     absolute magnetization    =     1.23 Bohr mag/cell

     iteration # 57     ecut=    45.00 Ry     beta=0.70
     Davidson diagonalization with overlap
     ethr =  6.65E-07,  avg # of iterations =  1.0

     total cpu time spent up to now is      181.0 secs

     total energy              =    -919.10348695 Ry
     Harris-Foulkes estimate   =    -919.10353908 Ry
     estimated scf accuracy    <       0.00203957 Ry

     total magnetization       =     1.00 Bohr mag/cell
     absolute magnetization    =     1.23 Bohr mag/cell

     iteration # 58     ecut=    45.00 Ry     beta=0.70
     Davidson diagonalization with overlap
     ethr =  6.65E-07,  avg # of iterations =  1.0

     total cpu time spent up to now is      183.5 secs

     total energy              =    -919.10348334 Ry
     Harris-Foulkes estimate   =    -919.10348954 Ry
     estimated scf accuracy    <       0.00179506 Ry

     total magnetization       =     1.00 Bohr mag/cell
     absolute magnetization    =     1.23 Bohr mag/cell

     iteration # 59     ecut=    45.00 Ry     beta=0.70
     Davidson diagonalization with overlap
     ethr =  6.30E-07,  avg # of iterations =  1.0

     total cpu time spent up to now is      186.0 secs

     total energy              =    -919.10344994 Ry
     Harris-Foulkes estimate   =    -919.10348377 Ry
     estimated scf accuracy    <       0.00175574 Ry

     total magnetization       =     1.00 Bohr mag/cell
     absolute magnetization    =     1.23 Bohr mag/cell

     iteration # 60     ecut=    45.00 Ry     beta=0.70
     Davidson diagonalization with overlap
     ethr =  6.16E-07,  avg # of iterations =  1.0

     total cpu time spent up to now is      188.5 secs

     total energy              =    -919.10278453 Ry
     Harris-Foulkes estimate   =    -919.10345165 Ry
     estimated scf accuracy    <       0.00158786 Ry

     total magnetization       =     1.00 Bohr mag/cell
     absolute magnetization    =     1.23 Bohr mag/cell

     iteration # 61     ecut=    45.00 Ry     beta=0.70
     Davidson diagonalization with overlap
     ethr =  5.57E-07,  avg # of iterations =  5.0

     total cpu time spent up to now is      191.8 secs

     total energy              =    -919.10210226 Ry
     Harris-Foulkes estimate   =    -919.10888662 Ry
     estimated scf accuracy    <       0.32437511 Ry

     total magnetization       =     1.00 Bohr mag/cell
     absolute magnetization    =     2.61 Bohr mag/cell

     iteration # 62     ecut=    45.00 Ry     beta=0.70
     Davidson diagonalization with overlap
     ethr =  5.57E-07,  avg # of iterations =  5.0

     total cpu time spent up to now is      195.0 secs

     total energy              =    -919.10332540 Ry
     Harris-Foulkes estimate   =    -919.10338316 Ry
     estimated scf accuracy    <       0.00093473 Ry

     total magnetization       =     1.00 Bohr mag/cell
     absolute magnetization    =     1.27 Bohr mag/cell

     iteration # 63     ecut=    45.00 Ry     beta=0.70
     Davidson diagonalization with overlap
     ethr =  3.28E-07,  avg # of iterations =  2.0

     total cpu time spent up to now is      197.6 secs

     total energy              =    -919.10267932 Ry
     Harris-Foulkes estimate   =    -919.10350506 Ry
     estimated scf accuracy    <       0.25040115 Ry

     total magnetization       =     1.00 Bohr mag/cell
     absolute magnetization    =     2.53 Bohr mag/cell

     iteration # 64     ecut=    45.00 Ry     beta=0.70
     Davidson diagonalization with overlap
     ethr =  3.28E-07,  avg # of iterations =  1.5

     total cpu time spent up to now is      200.2 secs

     total energy              =    -919.10333107 Ry
     Harris-Foulkes estimate   =    -919.10337510 Ry
     estimated scf accuracy    <       0.00107974 Ry

     total magnetization       =     1.00 Bohr mag/cell
     absolute magnetization    =     1.24 Bohr mag/cell

     iteration # 65     ecut=    45.00 Ry     beta=0.70
     Davidson diagonalization with overlap
     ethr =  3.28E-07,  avg # of iterations =  1.5

     total cpu time spent up to now is      202.8 secs

     total energy              =    -919.10331293 Ry
     Harris-Foulkes estimate   =    -919.10333448 Ry
     estimated scf accuracy    <       0.00084315 Ry

     total magnetization       =     1.00 Bohr mag/cell
     absolute magnetization    =     1.25 Bohr mag/cell

     iteration # 66     ecut=    45.00 Ry     beta=0.70
     Davidson diagonalization with overlap
     ethr =  2.96E-07,  avg # of iterations =  1.0

     total cpu time spent up to now is      205.3 secs

     total energy              =    -919.10345993 Ry
     Harris-Foulkes estimate   =    -919.10358399 Ry
     estimated scf accuracy    <       0.27650002 Ry

     total magnetization       =     1.00 Bohr mag/cell
     absolute magnetization    =     2.59 Bohr mag/cell

     iteration # 67     ecut=    45.00 Ry     beta=0.70
     Davidson diagonalization with overlap
     ethr =  2.96E-07,  avg # of iterations =  1.0

     total cpu time spent up to now is      207.8 secs

     total energy              =    -919.10326327 Ry
     Harris-Foulkes estimate   =    -919.10346118 Ry
     estimated scf accuracy    <       0.28183160 Ry

     total magnetization       =     1.00 Bohr mag/cell
     absolute magnetization    =     2.61 Bohr mag/cell

     iteration # 68     ecut=    45.00 Ry     beta=0.70
     Davidson diagonalization with overlap
     ethr =  2.96E-07,  avg # of iterations =  1.0

     total cpu time spent up to now is      210.3 secs

     total energy              =    -919.10330882 Ry
     Harris-Foulkes estimate   =    -919.10333542 Ry
     estimated scf accuracy    <       0.00083628 Ry

     total magnetization       =     1.00 Bohr mag/cell
     absolute magnetization    =     1.25 Bohr mag/cell

     iteration # 69     ecut=    45.00 Ry     beta=0.70
     Davidson diagonalization with overlap
     ethr =  2.93E-07,  avg # of iterations =  1.0

     total cpu time spent up to now is      212.8 secs

     total energy              =    -919.10360992 Ry
     Harris-Foulkes estimate   =    -919.10368791 Ry
     estimated scf accuracy    <       0.28219353 Ry

     total magnetization       =     1.00 Bohr mag/cell
     absolute magnetization    =     2.61 Bohr mag/cell

     iteration # 70     ecut=    45.00 Ry     beta=0.70
     Davidson diagonalization with overlap
     ethr =  2.93E-07,  avg # of iterations =  1.0

     total cpu time spent up to now is      215.3 secs

     total energy              =    -919.10329755 Ry
     Harris-Foulkes estimate   =    -919.10361010 Ry
     estimated scf accuracy    <       0.28220482 Ry

     total magnetization       =     1.00 Bohr mag/cell
     absolute magnetization    =     2.61 Bohr mag/cell

     iteration # 71     ecut=    45.00 Ry     beta=0.70
     Davidson diagonalization with overlap
     ethr =  2.93E-07,  avg # of iterations =  1.0

     total cpu time spent up to now is      217.8 secs

     total energy              =    -919.10336846 Ry
     Harris-Foulkes estimate   =    -919.10335803 Ry
     estimated scf accuracy    <       0.02646069 Ry

     total magnetization       =     1.00 Bohr mag/cell
     absolute magnetization    =     1.65 Bohr mag/cell

     iteration # 72     ecut=    45.00 Ry     beta=0.70
     Davidson diagonalization with overlap
     ethr =  2.93E-07,  avg # of iterations =  1.0

     total cpu time spent up to now is      220.3 secs

     total energy              =    -919.10343844 Ry
     Harris-Foulkes estimate   =    -919.10342440 Ry
     estimated scf accuracy    <       0.27126443 Ry

     total magnetization       =     1.00 Bohr mag/cell
     absolute magnetization    =     2.58 Bohr mag/cell

     iteration # 73     ecut=    45.00 Ry     beta=0.70
     Davidson diagonalization with overlap
     ethr =  2.93E-07,  avg # of iterations =  1.0

     total cpu time spent up to now is      222.8 secs

     total energy              =    -919.10329464 Ry
     Harris-Foulkes estimate   =    -919.10344396 Ry
     estimated scf accuracy    <       0.22134832 Ry

     total magnetization       =     1.00 Bohr mag/cell
     absolute magnetization    =     2.45 Bohr mag/cell

     iteration # 74     ecut=    45.00 Ry     beta=0.70
     Davidson diagonalization with overlap
     ethr =  2.93E-07,  avg # of iterations =  1.0

     total cpu time spent up to now is      225.3 secs

     total energy              =    -919.10335546 Ry
     Harris-Foulkes estimate   =    -919.10337665 Ry
     estimated scf accuracy    <       0.01328918 Ry

     total magnetization       =     1.00 Bohr mag/cell
     absolute magnetization    =     1.53 Bohr mag/cell

     iteration # 75     ecut=    45.00 Ry     beta=0.70
     Davidson diagonalization with overlap
     ethr =  2.93E-07,  avg # of iterations =  1.0

     total cpu time spent up to now is      227.8 secs

     total energy              =    -919.10341276 Ry
     Harris-Foulkes estimate   =    -919.10339166 Ry
     estimated scf accuracy    <       0.00132587 Ry

     total magnetization       =     1.00 Bohr mag/cell
     absolute magnetization    =     1.32 Bohr mag/cell

     iteration # 76     ecut=    45.00 Ry     beta=0.70
     Davidson diagonalization with overlap
     ethr =  2.93E-07,  avg # of iterations =  1.0

     total cpu time spent up to now is      230.3 secs

     total energy              =    -919.10343757 Ry
     Harris-Foulkes estimate   =    -919.10341803 Ry
     estimated scf accuracy    <       0.00103871 Ry

     total magnetization       =     1.00 Bohr mag/cell
     absolute magnetization    =     1.29 Bohr mag/cell

     iteration # 77     ecut=    45.00 Ry     beta=0.70
     Davidson diagonalization with overlap
     ethr =  2.93E-07,  avg # of iterations =  1.0

     total cpu time spent up to now is      232.8 secs

     total energy              =    -919.10346645 Ry
     Harris-Foulkes estimate   =    -919.10343968 Ry
     estimated scf accuracy    <       0.00109612 Ry

     total magnetization       =     1.00 Bohr mag/cell
     absolute magnetization    =     1.28 Bohr mag/cell

     iteration # 78     ecut=    45.00 Ry     beta=0.70
     Davidson diagonalization with overlap
     ethr =  2.93E-07,  avg # of iterations =  2.0

     total cpu time spent up to now is      235.4 secs

     total energy              =    -919.10341969 Ry
     Harris-Foulkes estimate   =    -919.10347047 Ry
     estimated scf accuracy    <       0.00127876 Ry

     total magnetization       =     1.00 Bohr mag/cell
     absolute magnetization    =     1.27 Bohr mag/cell

     iteration # 79     ecut=    45.00 Ry     beta=0.70
     Davidson diagonalization with overlap
     ethr =  2.93E-07,  avg # of iterations =  1.0

     total cpu time spent up to now is      237.9 secs

     total energy              =    -919.10340901 Ry
     Harris-Foulkes estimate   =    -919.10342253 Ry
     estimated scf accuracy    <       0.00109682 Ry

     total magnetization       =     1.00 Bohr mag/cell
     absolute magnetization    =     1.28 Bohr mag/cell

     iteration # 80     ecut=    45.00 Ry     beta=0.70
     Davidson diagonalization with overlap
     ethr =  2.93E-07,  avg # of iterations =  1.0

     total cpu time spent up to now is      240.4 secs

     total energy              =    -919.10338019 Ry
     Harris-Foulkes estimate   =    -919.10341023 Ry
     estimated scf accuracy    <       0.00105214 Ry

     total magnetization       =     1.00 Bohr mag/cell
     absolute magnetization    =     1.29 Bohr mag/cell

     iteration # 81     ecut=    45.00 Ry     beta=0.70
     Davidson diagonalization with overlap
     ethr =  2.93E-07,  avg # of iterations =  2.0

     total cpu time spent up to now is      243.1 secs

     total energy              =    -919.10341746 Ry
     Harris-Foulkes estimate   =    -919.10338896 Ry
     estimated scf accuracy    <       0.00210062 Ry

     total magnetization       =     1.00 Bohr mag/cell
     absolute magnetization    =     1.35 Bohr mag/cell

     iteration # 82     ecut=    45.00 Ry     beta=0.70
     Davidson diagonalization with overlap
     ethr =  2.93E-07,  avg # of iterations =  1.0

     total cpu time spent up to now is      245.6 secs

     total energy              =    -919.10352616 Ry
     Harris-Foulkes estimate   =    -919.10342106 Ry
     estimated scf accuracy    <       0.00136309 Ry

     total magnetization       =     1.00 Bohr mag/cell
     absolute magnetization    =     1.32 Bohr mag/cell

     iteration # 83     ecut=    45.00 Ry     beta=0.70
     Davidson diagonalization with overlap
     ethr =  2.93E-07,  avg # of iterations =  4.0

     total cpu time spent up to now is      248.5 secs

     total energy              =    -919.10277099 Ry
     Harris-Foulkes estimate   =    -919.10370631 Ry
     estimated scf accuracy    <       0.00248267 Ry

     total magnetization       =     1.00 Bohr mag/cell
     absolute magnetization    =     1.26 Bohr mag/cell

     iteration # 84     ecut=    45.00 Ry     beta=0.70
     Davidson diagonalization with overlap
     ethr =  2.93E-07,  avg # of iterations =  5.0

     total cpu time spent up to now is      252.1 secs

     total energy              =    -919.10178476 Ry
     Harris-Foulkes estimate   =    -919.10701556 Ry
     estimated scf accuracy    <       0.30273417 Ry

     total magnetization       =     1.00 Bohr mag/cell
     absolute magnetization    =     2.61 Bohr mag/cell

     iteration # 85     ecut=    45.00 Ry     beta=0.70
     Davidson diagonalization with overlap
     ethr =  2.93E-07,  avg # of iterations =  4.5

     total cpu time spent up to now is      255.3 secs

     total energy              =    -919.10345007 Ry
     Harris-Foulkes estimate   =    -919.10345194 Ry
     estimated scf accuracy    <       0.00114330 Ry

     total magnetization       =     1.00 Bohr mag/cell
     absolute magnetization    =     1.28 Bohr mag/cell

     iteration # 86     ecut=    45.00 Ry     beta=0.70
     Davidson diagonalization with overlap
     ethr =  2.93E-07,  avg # of iterations =  1.0

     total cpu time spent up to now is      257.8 secs

     total energy              =    -919.10349235 Ry
     Harris-Foulkes estimate   =    -919.10345224 Ry
     estimated scf accuracy    <       0.00113840 Ry

     total magnetization       =     1.00 Bohr mag/cell
     absolute magnetization    =     1.28 Bohr mag/cell

     iteration # 87     ecut=    45.00 Ry     beta=0.70
     Davidson diagonalization with overlap
     ethr =  2.93E-07,  avg # of iterations =  1.0

     total cpu time spent up to now is      260.3 secs

     total energy              =    -919.10347378 Ry
     Harris-Foulkes estimate   =    -919.10349605 Ry
     estimated scf accuracy    <       0.00132174 Ry

     total magnetization       =     1.00 Bohr mag/cell
     absolute magnetization    =     1.27 Bohr mag/cell

     iteration # 88     ecut=    45.00 Ry     beta=0.70
     Davidson diagonalization with overlap
     ethr =  2.93E-07,  avg # of iterations =  1.0

     total cpu time spent up to now is      262.8 secs

     total energy              =    -919.10356438 Ry
     Harris-Foulkes estimate   =    -919.10347556 Ry
     estimated scf accuracy    <       0.00119321 Ry

     total magnetization       =     1.00 Bohr mag/cell
     absolute magnetization    =     1.28 Bohr mag/cell

     iteration # 89     ecut=    45.00 Ry     beta=0.70
     Davidson diagonalization with overlap
     ethr =  2.93E-07,  avg # of iterations =  2.5

     total cpu time spent up to now is      265.5 secs

     total energy              =    -919.10363422 Ry
     Harris-Foulkes estimate   =    -919.10357763 Ry
     estimated scf accuracy    <       0.00162725 Ry

     total magnetization       =     1.00 Bohr mag/cell
     absolute magnetization    =     1.27 Bohr mag/cell

     iteration # 90     ecut=    45.00 Ry     beta=0.70
     Davidson diagonalization with overlap
     ethr =  2.93E-07,  avg # of iterations =  1.5

     total cpu time spent up to now is      268.1 secs

     total energy              =    -919.10371108 Ry
     Harris-Foulkes estimate   =    -919.10363893 Ry
     estimated scf accuracy    <       0.00188856 Ry

     total magnetization       =     1.00 Bohr mag/cell
     absolute magnetization    =     1.27 Bohr mag/cell

     iteration # 91     ecut=    45.00 Ry     beta=0.70
     Davidson diagonalization with overlap
     ethr =  2.93E-07,  avg # of iterations =  2.5

     total cpu time spent up to now is      270.8 secs

     total energy              =    -919.10404477 Ry
     Harris-Foulkes estimate   =    -919.10371777 Ry
     estimated scf accuracy    <       0.00221171 Ry

     total magnetization       =     1.00 Bohr mag/cell
     absolute magnetization    =     1.27 Bohr mag/cell

     iteration # 92     ecut=    45.00 Ry     beta=0.70
     Davidson diagonalization with overlap
     ethr =  2.93E-07,  avg # of iterations =  4.0

     total cpu time spent up to now is      273.8 secs

     total energy              =    -919.10420764 Ry
     Harris-Foulkes estimate   =    -919.10417319 Ry
     estimated scf accuracy    <       0.00474576 Ry

     total magnetization       =     1.00 Bohr mag/cell
     absolute magnetization    =     1.27 Bohr mag/cell

     iteration # 93     ecut=    45.00 Ry     beta=0.70
     Davidson diagonalization with overlap
     ethr =  2.93E-07,  avg # of iterations =  1.0

     total cpu time spent up to now is      276.3 secs

     total energy              =    -919.10076221 Ry
     Harris-Foulkes estimate   =    -919.10421114 Ry
     estimated scf accuracy    <       0.00504517 Ry

     total magnetization       =     1.00 Bohr mag/cell
     absolute magnetization    =     1.26 Bohr mag/cell

     iteration # 94     ecut=    45.00 Ry     beta=0.70
     Davidson diagonalization with overlap
     ethr =  2.93E-07,  avg # of iterations =  6.0

     total cpu time spent up to now is      280.9 secs

     total energy              =    -919.10951791 Ry
     Harris-Foulkes estimate   =    -919.11698649 Ry
     estimated scf accuracy    <       1.21652484 Ry

     total magnetization       =     1.00 Bohr mag/cell
     absolute magnetization    =     1.35 Bohr mag/cell

     iteration # 95     ecut=    45.00 Ry     beta=0.70
     Davidson diagonalization with overlap
     ethr =  2.93E-07,  avg # of iterations =  3.0

     total cpu time spent up to now is      283.6 secs

     total energy              =    -919.10859263 Ry
     Harris-Foulkes estimate   =    -919.10978890 Ry
     estimated scf accuracy    <       0.90023870 Ry

     total magnetization       =     1.00 Bohr mag/cell
     absolute magnetization    =     1.67 Bohr mag/cell

     iteration # 96     ecut=    45.00 Ry     beta=0.70
     Davidson diagonalization with overlap
     ethr =  2.93E-07,  avg # of iterations =  1.0

     total cpu time spent up to now is      286.1 secs

     total energy              =    -919.08134762 Ry
     Harris-Foulkes estimate   =    -919.10884775 Ry
     estimated scf accuracy    <       0.51452549 Ry

     total magnetization       =     1.00 Bohr mag/cell
     absolute magnetization    =     2.24 Bohr mag/cell

     iteration # 97     ecut=    45.00 Ry     beta=0.70
     Davidson diagonalization with overlap
     ethr =  2.93E-07,  avg # of iterations =  5.5

     total cpu time spent up to now is      290.5 secs

     total energy              =    -919.10474007 Ry
     Harris-Foulkes estimate   =    -919.10421849 Ry
     estimated scf accuracy    <       0.00465907 Ry

     total magnetization       =     1.00 Bohr mag/cell
     absolute magnetization    =     1.28 Bohr mag/cell

     iteration # 98     ecut=    45.00 Ry     beta=0.70
     Davidson diagonalization with overlap
     ethr =  2.93E-07,  avg # of iterations =  4.5

     total cpu time spent up to now is      293.7 secs

     total energy              =    -919.10512251 Ry
     Harris-Foulkes estimate   =    -919.10490480 Ry
     estimated scf accuracy    <       0.00909801 Ry

     total magnetization       =     1.00 Bohr mag/cell
     absolute magnetization    =     1.26 Bohr mag/cell

     iteration # 99     ecut=    45.00 Ry     beta=0.70
     Davidson diagonalization with overlap
     ethr =  2.93E-07,  avg # of iterations =  3.0

     total cpu time spent up to now is      296.4 secs

     total energy              =    -919.10543387 Ry
     Harris-Foulkes estimate   =    -919.10514005 Ry
     estimated scf accuracy    <       0.01050496 Ry

     total magnetization       =     1.00 Bohr mag/cell
     absolute magnetization    =     1.26 Bohr mag/cell

     iteration #100     ecut=    45.00 Ry     beta=0.70
     Davidson diagonalization with overlap
     ethr =  2.93E-07,  avg # of iterations =  3.5
 
     Magnetic moment per site:
     atom:    1    charge:    0.8233    magn:    0.0009    constr:    0.0000
     atom:    2    charge:    0.8375    magn:    0.0015    constr:    0.0000
     atom:    3    charge:    0.8483    magn:    0.0002    constr:    0.0000
     atom:    4    charge:    0.8453    magn:    0.0006    constr:    0.0000
     atom:    5    charge:    0.8420    magn:    0.0004    constr:    0.0000
     atom:    6    charge:    0.8341    magn:    0.0031    constr:    0.0000
     atom:    7    charge:    0.8319    magn:    0.0011    constr:    0.0000
     atom:    8    charge:    0.8029    magn:    0.0044    constr:    0.0000
     atom:    9    charge:    0.8534    magn:    0.0075    constr:    0.0000
     atom:   10    charge:    0.8515    magn:    0.0051    constr:    0.0000
     atom:   11    charge:    0.8440    magn:    0.0019    constr:    0.0000
     atom:   12    charge:    0.8423    magn:    0.0004    constr:    0.0000
     atom:   13    charge:    0.8410    magn:   -0.0002    constr:    0.0000
     atom:   14    charge:    0.8207    magn:    0.0056    constr:    0.0000
     atom:   15    charge:    0.7555    magn:    0.0875    constr:    0.0000
     atom:   16    charge:    0.8740    magn:    0.0206    constr:    0.0000
     atom:   17    charge:    0.8514    magn:    0.0050    constr:    0.0000
     atom:   18    charge:    0.8447    magn:    0.0006    constr:    0.0000
     atom:   19    charge:    0.8474    magn:    0.0004    constr:    0.0000
     atom:   20    charge:    0.8729    magn:    0.0028    constr:    0.0000
     atom:   21    charge:    2.4222    magn:   -0.0352    constr:    0.0000
     atom:   22    charge:    0.7549    magn:    0.0875    constr:    0.0000
     atom:   23    charge:    0.8542    magn:    0.0075    constr:    0.0000
     atom:   24    charge:    0.8476    magn:    0.0002    constr:    0.0000
     atom:   25    charge:    0.8459    magn:    0.0002    constr:    0.0000
     atom:   26    charge:    0.8602    magn:    0.0015    constr:    0.0000
     atom:   27    charge:    0.8715    magn:    0.0027    constr:    0.0000
     atom:   28    charge:    0.8223    magn:    0.0055    constr:    0.0000
     atom:   29    charge:    0.8035    magn:    0.0044    constr:    0.0000
     atom:   30    charge:    0.8383    magn:    0.0015    constr:    0.0000
     atom:   31    charge:    0.8391    magn:    0.0036    constr:    0.0000
     atom:   32    charge:    0.8464    magn:    0.0002    constr:    0.0000
     atom:   33    charge:    0.8495    magn:    0.0004    constr:    0.0000
     atom:   34    charge:    0.8405    magn:   -0.0002    constr:    0.0000
     atom:   35    charge:    0.8299    magn:    0.0011    constr:    0.0000
     atom:   36    charge:    0.8238    magn:    0.0009    constr:    0.0000
     atom:   37    charge:    2.5727    magn:   -0.0013    constr:    0.0000
     atom:   38    charge:    2.5714    magn:    0.0022    constr:    0.0000
     atom:   39    charge:    2.5771    magn:    0.0003    constr:    0.0000
     atom:   40    charge:    2.5725    magn:   -0.0007    constr:    0.0000
     atom:   41    charge:    2.5612    magn:   -0.0010    constr:    0.0000
     atom:   42    charge:    2.5609    magn:   -0.0013    constr:    0.0000
     atom:   43    charge:    2.5534    magn:   -0.0014    constr:    0.0000
     atom:   44    charge:    2.5769    magn:    0.0020    constr:    0.0000
     atom:   45    charge:    2.5752    magn:   -0.0016    constr:    0.0000
     atom:   46    charge:    2.5792    magn:   -0.0012    constr:    0.0000
     atom:   47    charge:    2.5730    magn:   -0.0006    constr:    0.0000
     atom:   48    charge:    2.5616    magn:   -0.0010    constr:    0.0000
     atom:   49    charge:    2.5523    magn:   -0.0027    constr:    0.0000
     atom:   50    charge:    2.5115    magn:   -0.0035    constr:    0.0000
     atom:   51    charge:    2.5829    magn:   -0.0021    constr:    0.0000
     atom:   52    charge:    2.5862    magn:   -0.0051    constr:    0.0000
     atom:   53    charge:    2.5811    magn:   -0.0013    constr:    0.0000
     atom:   54    charge:    2.5726    magn:   -0.0007    constr:    0.0000
     atom:   55    charge:    2.5794    magn:    0.0005    constr:    0.0000
     atom:   56    charge:    2.5425    magn:   -0.0086    constr:    0.0000
     atom:   57    charge:    2.5816    magn:   -0.0021    constr:    0.0000
     atom:   58    charge:    2.5849    magn:   -0.0016    constr:    0.0000
     atom:   59    charge:    2.5798    magn:    0.0003    constr:    0.0000
     atom:   60    charge:    2.5809    magn:   -0.0002    constr:    0.0000
     atom:   61    charge:    2.5895    magn:   -0.0023    constr:    0.0000
     atom:   62    charge:    2.5471    magn:   -0.0089    constr:    0.0000
     atom:   63    charge:    2.5114    magn:   -0.0034    constr:    0.0000
     atom:   64    charge:    2.5714    magn:    0.0020    constr:    0.0000
     atom:   65    charge:    2.5714    magn:    0.0022    constr:    0.0000
     atom:   66    charge:    2.5716    magn:   -0.0009    constr:    0.0000
     atom:   67    charge:    2.5819    magn:   -0.0002    constr:    0.0000
     atom:   68    charge:    2.5875    magn:    0.0005    constr:    0.0000
     atom:   69    charge:    2.5519    magn:   -0.0028    constr:    0.0000
     atom:   70    charge:    2.5546    magn:   -0.0014    constr:    0.0000
     atom:   71    charge:    2.5716    magn:   -0.0013    constr:    0.0000

     total cpu time spent up to now is      299.3 secs

     total energy              =    -919.10567619 Ry
     Harris-Foulkes estimate   =    -919.10546604 Ry
     estimated scf accuracy    <       0.01275527 Ry

     total magnetization       =     1.00 Bohr mag/cell
     absolute magnetization    =     1.26 Bohr mag/cell

     iteration #101     ecut=    45.00 Ry     beta=0.70
     Davidson diagonalization with overlap
     ethr =  2.93E-07,  avg # of iterations =  2.5

     total cpu time spent up to now is      302.0 secs

     total energy              =    -919.10570934 Ry
     Harris-Foulkes estimate   =    -919.10569230 Ry
     estimated scf accuracy    <       0.01434396 Ry

     total magnetization       =     1.00 Bohr mag/cell
     absolute magnetization    =     1.26 Bohr mag/cell

     iteration #102     ecut=    45.00 Ry     beta=0.70
     Davidson diagonalization with overlap
     ethr =  2.93E-07,  avg # of iterations =  1.0

     total cpu time spent up to now is      304.5 secs

     total energy              =    -919.10539171 Ry
     Harris-Foulkes estimate   =    -919.10571297 Ry
     estimated scf accuracy    <       0.01466355 Ry

     total magnetization       =     1.00 Bohr mag/cell
     absolute magnetization    =     1.26 Bohr mag/cell

     iteration #103     ecut=    45.00 Ry     beta=0.70
     Davidson diagonalization with overlap
     ethr =  2.93E-07,  avg # of iterations =  2.5

     total cpu time spent up to now is      307.1 secs

     total energy              =    -919.10246109 Ry
     Harris-Foulkes estimate   =    -919.10540534 Ry
     estimated scf accuracy    <       0.01351277 Ry

     total magnetization       =     1.00 Bohr mag/cell
     absolute magnetization    =     1.25 Bohr mag/cell

     iteration #104     ecut=    45.00 Ry     beta=0.70
     Davidson diagonalization with overlap
     ethr =  2.93E-07,  avg # of iterations =  5.5

     total cpu time spent up to now is      311.3 secs

     total energy              =    -919.10346993 Ry
     Harris-Foulkes estimate   =    -919.10377307 Ry
     estimated scf accuracy    <       0.00300462 Ry

     total magnetization       =     1.00 Bohr mag/cell
     absolute magnetization    =     1.22 Bohr mag/cell

     iteration #105     ecut=    45.00 Ry     beta=0.70
     Davidson diagonalization with overlap
     ethr =  2.93E-07,  avg # of iterations =  3.5

     total cpu time spent up to now is      314.1 secs

     total energy              =    -919.10302934 Ry
     Harris-Foulkes estimate   =    -919.10352497 Ry
     estimated scf accuracy    <       0.00167135 Ry

     total magnetization       =     1.00 Bohr mag/cell
     absolute magnetization    =     1.23 Bohr mag/cell

     iteration #106     ecut=    45.00 Ry     beta=0.70
     Davidson diagonalization with overlap
     ethr =  2.93E-07,  avg # of iterations =  4.5

     total cpu time spent up to now is      317.3 secs

     total energy              =    -919.09536014 Ry
     Harris-Foulkes estimate   =    -919.10566833 Ry
     estimated scf accuracy    <       0.29914248 Ry

     total magnetization       =     1.00 Bohr mag/cell
     absolute magnetization    =     2.60 Bohr mag/cell

     iteration #107     ecut=    45.00 Ry     beta=0.70
     Davidson diagonalization with overlap
     ethr =  2.93E-07,  avg # of iterations =  5.5

     total cpu time spent up to now is      321.2 secs

     total energy              =    -919.10405645 Ry
     Harris-Foulkes estimate   =    -919.10412276 Ry
     estimated scf accuracy    <       0.00510907 Ry

     total magnetization       =     1.00 Bohr mag/cell
     absolute magnetization    =     1.24 Bohr mag/cell

     iteration #108     ecut=    45.00 Ry     beta=0.70
     Davidson diagonalization with overlap
     ethr =  2.93E-07,  avg # of iterations =  1.0

     total cpu time spent up to now is      323.7 secs

     total energy              =    -919.10401378 Ry
     Harris-Foulkes estimate   =    -919.10405996 Ry
     estimated scf accuracy    <       0.00486484 Ry

     total magnetization       =     1.00 Bohr mag/cell
     absolute magnetization    =     1.24 Bohr mag/cell

     iteration #109     ecut=    45.00 Ry     beta=0.70
     Davidson diagonalization with overlap
     ethr =  2.93E-07,  avg # of iterations =  1.0

     total cpu time spent up to now is      326.2 secs

     total energy              =    -919.10400093 Ry
     Harris-Foulkes estimate   =    -919.10401528 Ry
     estimated scf accuracy    <       0.00459005 Ry

     total magnetization       =     1.00 Bohr mag/cell
     absolute magnetization    =     1.24 Bohr mag/cell

     iteration #110     ecut=    45.00 Ry     beta=0.70
     Davidson diagonalization with overlap
     ethr =  2.93E-07,  avg # of iterations =  1.0

     total cpu time spent up to now is      328.7 secs

     total energy              =    -919.10416001 Ry
     Harris-Foulkes estimate   =    -919.10400142 Ry
     estimated scf accuracy    <       0.00448835 Ry

     total magnetization       =     1.00 Bohr mag/cell
     absolute magnetization    =     1.24 Bohr mag/cell

     iteration #111     ecut=    45.00 Ry     beta=0.70
     Davidson diagonalization with overlap
     ethr =  2.93E-07,  avg # of iterations =  1.5

     total cpu time spent up to now is      331.3 secs

     total energy              =    -919.10423663 Ry
     Harris-Foulkes estimate   =    -919.10416932 Ry
     estimated scf accuracy    <       0.00540581 Ry

     total magnetization       =     1.00 Bohr mag/cell
     absolute magnetization    =     1.24 Bohr mag/cell

     iteration #112     ecut=    45.00 Ry     beta=0.70
     Davidson diagonalization with overlap
     ethr =  2.93E-07,  avg # of iterations =  1.0

     total cpu time spent up to now is      333.8 secs

     total energy              =    -919.10447272 Ry
     Harris-Foulkes estimate   =    -919.10423920 Ry
     estimated scf accuracy    <       0.00581396 Ry

     total magnetization       =     1.00 Bohr mag/cell
[...]
     atom   38 type  2   force =     0.00000000    0.00000000    0.00000000
     atom   39 type  2   force =     0.00000000    0.00000000    0.00000000
     atom   40 type  2   force =     0.00000000    0.00000000    0.00000000
     atom   41 type  2   force =     0.00000000    0.00000000    0.00000000
     atom   42 type  2   force =     0.00000000    0.00000000    0.00000000
     atom   43 type  2   force =     0.00000000    0.00000000    0.00000000
     atom   44 type  2   force =     0.00000000    0.00000000    0.00000000
     atom   45 type  2   force =     0.00000000    0.00000000    0.00000000
     atom   46 type  2   force =     0.00000000    0.00000000    0.00000000
     atom   47 type  2   force =     0.00000000    0.00000000    0.00000000
     atom   48 type  2   force =     0.00000000    0.00000000    0.00000000
     atom   49 type  2   force =     0.00000000    0.00000000    0.00000000
     atom   50 type  2   force =     0.00000000    0.00000000    0.00000000
     atom   51 type  2   force =     0.00000000    0.00000000    0.00000000
     atom   52 type  2   force =     0.00000000    0.00000000    0.00000000
     atom   53 type  2   force =     0.00000000    0.00000000    0.00000000
     atom   54 type  2   force =     0.00000000    0.00000000    0.00000000
     atom   55 type  2   force =     0.00000000    0.00000000    0.00000000
     atom   56 type  2   force =     0.00000000    0.00000000    0.00000000
     atom   57 type  2   force =     0.00000000    0.00000000    0.00000000
     atom   58 type  2   force =     0.00000000    0.00000000    0.00000000
     atom   59 type  2   force =     0.00000000    0.00000000    0.00000000
     atom   60 type  2   force =     0.00000000    0.00000000    0.00000000
     atom   61 type  2   force =     0.00000000    0.00000000    0.00000000
     atom   62 type  2   force =     0.00000000    0.00000000    0.00000000
     atom   63 type  2   force =     0.00000000    0.00000000    0.00000000
     atom   64 type  2   force =     0.00000000    0.00000000    0.00000000
     atom   65 type  2   force =     0.00000000    0.00000000    0.00000000
     atom   66 type  2   force =     0.00000000    0.00000000    0.00000000
     atom   67 type  2   force =     0.00000000    0.00000000    0.00000000
     atom   68 type  2   force =     0.00000000    0.00000000    0.00000000
     atom   69 type  2   force =     0.00000000    0.00000000    0.00000000
     atom   70 type  2   force =     0.00000000    0.00000000    0.00000000
     atom   71 type  2   force =     0.00000000    0.00000000    0.00000000
     The Hubbard contrib.    to forces
     atom    1 type  1   force =     0.00000000    0.00000000    0.00000000
     atom    2 type  1   force =     0.00000000    0.00000000    0.00000000
     atom    3 type  1   force =     0.00000000    0.00000000    0.00000000
     atom    4 type  1   force =     0.00000000    0.00000000    0.00000000
     atom    5 type  1   force =     0.00000000    0.00000000    0.00000000
     atom    6 type  1   force =     0.00000000    0.00000000    0.00000000
     atom    7 type  1   force =     0.00000000    0.00000000    0.00000000
     atom    8 type  1   force =     0.00000000    0.00000000    0.00000000
     atom    9 type  1   force =     0.00000000    0.00000000    0.00000000
     atom   10 type  1   force =     0.00000000    0.00000000    0.00000000
     atom   11 type  1   force =     0.00000000    0.00000000    0.00000000
     atom   12 type  1   force =     0.00000000    0.00000000    0.00000000
     atom   13 type  1   force =     0.00000000    0.00000000    0.00000000
     atom   14 type  1   force =     0.00000000    0.00000000    0.00000000
     atom   15 type  1   force =     0.00000000    0.00000000    0.00000000
     atom   16 type  1   force =     0.00000000    0.00000000    0.00000000
     atom   17 type  1   force =     0.00000000    0.00000000    0.00000000
     atom   18 type  1   force =     0.00000000    0.00000000    0.00000000
     atom   19 type  1   force =     0.00000000    0.00000000    0.00000000
     atom   20 type  1   force =     0.00000000    0.00000000    0.00000000
     atom   21 type  2   force =     0.00000000    0.00000000    0.00000000
     atom   22 type  1   force =     0.00000000    0.00000000    0.00000000
     atom   23 type  1   force =     0.00000000    0.00000000    0.00000000
     atom   24 type  1   force =     0.00000000    0.00000000    0.00000000
     atom   25 type  1   force =     0.00000000    0.00000000    0.00000000
     atom   26 type  1   force =     0.00000000    0.00000000    0.00000000
     atom   27 type  1   force =     0.00000000    0.00000000    0.00000000
     atom   28 type  1   force =     0.00000000    0.00000000    0.00000000
     atom   29 type  1   force =     0.00000000    0.00000000    0.00000000
     atom   30 type  1   force =     0.00000000    0.00000000    0.00000000
     atom   31 type  1   force =     0.00000000    0.00000000    0.00000000
     atom   32 type  1   force =     0.00000000    0.00000000    0.00000000
     atom   33 type  1   force =     0.00000000    0.00000000    0.00000000
     atom   34 type  1   force =     0.00000000    0.00000000    0.00000000
     atom   35 type  1   force =     0.00000000    0.00000000    0.00000000
     atom   36 type  1   force =     0.00000000    0.00000000    0.00000000
     atom   37 type  2   force =     0.00000000    0.00000000    0.00000000
     atom   38 type  2   force =     0.00000000    0.00000000    0.00000000
     atom   39 type  2   force =     0.00000000    0.00000000    0.00000000
     atom   40 type  2   force =     0.00000000    0.00000000    0.00000000
     atom   41 type  2   force =     0.00000000    0.00000000    0.00000000
     atom   42 type  2   force =     0.00000000    0.00000000    0.00000000
     atom   43 type  2   force =     0.00000000    0.00000000    0.00000000
     atom   44 type  2   force =     0.00000000    0.00000000    0.00000000
     atom   45 type  2   force =     0.00000000    0.00000000    0.00000000
     atom   46 type  2   force =     0.00000000    0.00000000    0.00000000
     atom   47 type  2   force =     0.00000000    0.00000000    0.00000000
     atom   48 type  2   force =     0.00000000    0.00000000    0.00000000
     atom   49 type  2   force =     0.00000000    0.00000000    0.00000000
     atom   50 type  2   force =     0.00000000    0.00000000    0.00000000
     atom   51 type  2   force =     0.00000000    0.00000000    0.00000000
     atom   52 type  2   force =     0.00000000    0.00000000    0.00000000
     atom   53 type  2   force =     0.00000000    0.00000000    0.00000000
     atom   54 type  2   force =     0.00000000    0.00000000    0.00000000
     atom   55 type  2   force =     0.00000000    0.00000000    0.00000000
     atom   56 type  2   force =     0.00000000    0.00000000    0.00000000
     atom   57 type  2   force =     0.00000000    0.00000000    0.00000000
     atom   58 type  2   force =     0.00000000    0.00000000    0.00000000
     atom   59 type  2   force =     0.00000000    0.00000000    0.00000000
     atom   60 type  2   force =     0.00000000    0.00000000    0.00000000
     atom   61 type  2   force =     0.00000000    0.00000000    0.00000000
     atom   62 type  2   force =     0.00000000    0.00000000    0.00000000
     atom   63 type  2   force =     0.00000000    0.00000000    0.00000000
     atom   64 type  2   force =     0.00000000    0.00000000    0.00000000
     atom   65 type  2   force =     0.00000000    0.00000000    0.00000000
     atom   66 type  2   force =     0.00000000    0.00000000    0.00000000
     atom   67 type  2   force =     0.00000000    0.00000000    0.00000000
     atom   68 type  2   force =     0.00000000    0.00000000    0.00000000
     atom   69 type  2   force =     0.00000000    0.00000000    0.00000000
     atom   70 type  2   force =     0.00000000    0.00000000    0.00000000
     atom   71 type  2   force =     0.00000000    0.00000000    0.00000000
     The SCF correction term to forces
     atom    1 type  1   force =    -0.00000105   -0.00001007    0.00000000
     atom    2 type  1   force =    -0.00000499   -0.00000409    0.00000000
     atom    3 type  1   force =    -0.00000476    0.00000007    0.00000000
     atom    4 type  1   force =    -0.00000432    0.00000335    0.00000000
     atom    5 type  1   force =    -0.00000611    0.00000291    0.00000000
     atom    6 type  1   force =     0.00000044   -0.00000366    0.00000000
     atom    7 type  1   force =    -0.00000186   -0.00001444    0.00000000
     atom    8 type  1   force =     0.00000156   -0.00000216    0.00000000
     atom    9 type  1   force =     0.00000532    0.00000955    0.00000000
     atom   10 type  1   force =     0.00000346    0.00000842    0.00000000
     atom   11 type  1   force =    -0.00000260    0.00000270    0.00000000
     atom   12 type  1   force =    -0.00000455   -0.00000208    0.00000000
     atom   13 type  1   force =     0.00000024   -0.00001287    0.00000000
     atom   14 type  1   force =    -0.00001863   -0.00000279    0.00000000
     atom   15 type  1   force =     0.00000078    0.00002257    0.00000000
     atom   16 type  1   force =     0.00001383    0.00000319    0.00000000
     atom   17 type  1   force =     0.00000145   -0.00000456    0.00000000
     atom   18 type  1   force =    -0.00000257   -0.00000428    0.00000000
     atom   19 type  1   force =     0.00001159    0.00000186    0.00000000
     atom   20 type  1   force =     0.00002921    0.00000307    0.00000000
     atom   21 type  2   force =     0.00005440    0.00010533    0.00000000
     atom   22 type  1   force =     0.00000484    0.00001097    0.00000000
     atom   23 type  1   force =    -0.00000013   -0.00001390    0.00000000
     atom   24 type  1   force =     0.00000021   -0.00000339    0.00000000
     atom   25 type  1   force =    -0.00000112    0.00000642    0.00000000
     atom   26 type  1   force =     0.00000119    0.00000382    0.00000000
     atom   27 type  1   force =    -0.00001481    0.00001727    0.00000000
     atom   28 type  1   force =    -0.00000169   -0.00001814    0.00000000
     atom   29 type  1   force =     0.00000408   -0.00001552   -0.00000000
     atom   30 type  1   force =     0.00000120   -0.00000036    0.00000000
     atom   31 type  1   force =    -0.00000658    0.00000089    0.00000000
     atom   32 type  1   force =    -0.00000761   -0.00000292    0.00000000
     atom   33 type  1   force =    -0.00000873   -0.00000542    0.00000000
     atom   34 type  1   force =    -0.00001275   -0.00000515    0.00000000
     atom   35 type  1   force =     0.00000220   -0.00000519    0.00000000
     atom   36 type  1   force =     0.00000435   -0.00000159   -0.00000000
     atom   37 type  2   force =     0.00000129    0.00001143    0.00000000
     atom   38 type  2   force =     0.00000778    0.00000143    0.00000000
     atom   39 type  2   force =    -0.00000218   -0.00000952    0.00000000
     atom   40 type  2   force =    -0.00001392    0.00000481    0.00000000
     atom   41 type  2   force =     0.00000426   -0.00000049    0.00000000
     atom   42 type  2   force =     0.00000678   -0.00000900   -0.00000000
     atom   43 type  2   force =    -0.00001384   -0.00000106    0.00000000
     atom   44 type  2   force =    -0.00001232   -0.00001419    0.00000000
     atom   45 type  2   force =    -0.00001263   -0.00000389    0.00000000
     atom   46 type  2   force =    -0.00000301    0.00002081   -0.00000000
     atom   47 type  2   force =     0.00000715   -0.00000713    0.00000000
     atom   48 type  2   force =    -0.00000547   -0.00001941    0.00000000
     atom   49 type  2   force =    -0.00001450   -0.00000819    0.00000000
     atom   50 type  2   force =    -0.00000836   -0.00000471    0.00000000
     atom   51 type  2   force =     0.00001441    0.00002476    0.00000000
     atom   52 type  2   force =     0.00000737    0.00000515    0.00000000
     atom   53 type  2   force =    -0.00001552   -0.00001466    0.00000000
     atom   54 type  2   force =    -0.00001236   -0.00001990    0.00000000
     atom   55 type  2   force =     0.00001946   -0.00000592    0.00000000
     atom   56 type  2   force =     0.00001832    0.00004178    0.00000000
     atom   57 type  2   force =     0.00002180   -0.00001832    0.00000000
     atom   58 type  2   force =     0.00000709    0.00000100    0.00000000
     atom   59 type  2   force =     0.00001690   -0.00001104    0.00000000
     atom   60 type  2   force =     0.00000364    0.00000579    0.00000000
     atom   61 type  2   force =     0.00001592    0.00003609    0.00000000
     atom   62 type  2   force =     0.00002066    0.00004646    0.00000000
     atom   63 type  2   force =     0.00001714   -0.00002313    0.00000000
     atom   64 type  2   force =     0.00001005   -0.00000156   -0.00000000
     atom   65 type  2   force =     0.00001085   -0.00001786   -0.00000000
     atom   66 type  2   force =     0.00000097    0.00000241    0.00000000
     atom   67 type  2   force =    -0.00000929    0.00001321    0.00000000
     atom   68 type  2   force =    -0.00003256   -0.00000123    0.00000000
     atom   69 type  2   force =    -0.00003069   -0.00003452    0.00000000
     atom   70 type  2   force =    -0.00001198   -0.00001613   -0.00000000
     atom   71 type  2   force =    -0.00001392   -0.00001694   -0.00000000

     Total force =     0.001289     Total SCF correction =     0.000193
     SCF correction compared to forces is large: reduce conv_thr to get better values

     bfgs converged in  13 scf cycles and  12 bfgs steps
     (criteria: energy <  1.0E-05 Ry, force <  1.0E-03 Ry/Bohr)

     End of BFGS Geometry Optimization

     Final energy   =    -919.1406446615 Ry
Begin final coordinates

ATOMIC_POSITIONS (angstrom)
B        1.274919762   0.726531345   0.000000000
B        0.037474538   2.885011220   0.000000000
B       -1.256403706   5.048999511   0.000000000
B       -2.556336168   7.220874564   0.000000000
B       -3.814779594   9.391752451   0.000000000
B       -5.042281812  11.562935137   0.000000000
B        3.761397212   0.760152909   0.000000000
B        2.575423793   2.995007214   0.000000000
B        1.241489474   5.092844770   0.000000000
B       -0.072627258   7.241844482   0.000000000
B       -1.314278649   9.412618897   0.000000000
B       -2.547120839  11.588935224   0.000000000
B        6.255677568   0.738904270   0.000000000
B        5.008482550   2.983092356   0.000000000
B        3.840818729   5.401502774   0.000000000
B        2.385723451   7.274491344   0.000000000
B        1.184755888   9.419385927   0.000000000
B       -0.037470371  11.583646824   0.000000000
B        8.797668928   0.677147334   0.000000000
B        7.626675362   2.827204180   0.000000000
N        6.422478939   4.943667766   0.000000000
B        4.735399807   6.951071297   0.000000000
B        3.702503604   9.356035298   0.000000000
B        2.492283245  11.541044277   0.000000000
B       11.315861692   0.657920866   0.000000000
B       10.107404068   2.818087698   0.000000000
B        8.857864462   4.960052870   0.000000000
B        7.413846329   7.148736039   0.000000000
B        6.186753467   9.250383313   0.000000000
B        5.011740450  11.502104703   0.000000000
B       13.814011022   0.675603331   0.000000000
B       12.581152042   2.849806336   0.000000000
B       11.305433312   5.022855545   0.000000000
B        9.981882851   7.192764714   0.000000000
B        8.715672745   9.340763701   0.000000000
B        7.499786647  11.510158026   0.000000000
N        0.017273293   1.427314936   0.000000000
N       -1.230771686   3.594921404   0.000000000
N       -2.519528824   5.767955936   0.000000000
N       -3.822148459   7.934371529   0.000000000
N       -5.071554518  10.097705299   0.000000000
N       -6.287070425  12.280568126   0.000000000
N        2.533873071   1.503191278   0.000000000
N        1.276439080   3.636217289   0.000000000
N       -0.036123352   5.793987225   0.000000000
N       -1.326700546   7.964661933   0.000000000
N       -2.567105431  10.136729501   0.000000000
N       -3.788363184  12.322385766   0.000000000
N        5.026735810   1.516330011   0.000000000
N        3.847051130   3.795518816   0.000000000
N        2.442013677   5.847105082   0.000000000
N        1.146473816   7.989260184   0.000000000
N       -0.066530966  10.147117087   0.000000000
N       -1.288172223  12.323895176   0.000000000
N        7.546278596   1.415320258   0.000000000
N        6.404864042   3.630701490   0.000000000
N        3.650141248   7.939977436   0.000000000
N        2.456610087  10.111644201   0.000000000
N        1.239691709  12.277007363   0.000000000
N       10.062503662   1.387524013   0.000000000
N        8.854118506   3.540465422   0.000000000
N        7.550433984   5.614796988   0.000000000
N        6.130067077   7.749557643   0.000000000
N        4.980966070  10.053841254   0.000000000
N        3.763713860  12.246417473   0.000000000
N       12.560526631   1.400443741   0.000000000
N       11.323832264   3.572878529   0.000000000
N       10.040017377   5.736562564   0.000000000
N        8.693238502   7.866901739   0.000000000
N        7.458143097  10.032751407   0.000000000
N        6.263439483  12.248043387   0.000000000
End final coordinates



     Writing output data file BN.save
 
     init_run     :      3.72s CPU      3.98s WALL (       1 calls)
     electrons    :    857.57s CPU    871.02s WALL (      13 calls)
     update_pot   :     11.00s CPU     11.84s WALL (      12 calls)
     forces       :      8.65s CPU      8.84s WALL (      13 calls)

     Called by init_run:
     wfcinit      :      1.44s CPU      1.48s WALL (       1 calls)
     wfcinit:atom :      0.01s CPU      0.02s WALL (       1 calls)
     wfcinit:wfcr :      1.37s CPU      1.39s WALL (       1 calls)
     potinit      :      0.58s CPU      0.62s WALL (       1 calls)

     Called by electrons:
     c_bands      :    627.16s CPU    633.94s WALL (     284 calls)
     sum_band     :    119.06s CPU    120.14s WALL (     284 calls)
     v_of_rho     :     91.05s CPU     94.75s WALL (     289 calls)
     v_h          :      2.91s CPU      3.15s WALL (     289 calls)
     v_xc         :     88.14s CPU     91.60s WALL (     289 calls)
     mix_rho      :     14.95s CPU     15.45s WALL (     284 calls)

     Called by c_bands:
     init_us_2    :      8.44s CPU      8.45s WALL (     569 calls)
     regterg      :    595.34s CPU    602.03s WALL (     284 calls)

     Called by sum_band:

     Called by *egterg:
     h_psi        :    465.62s CPU    466.13s WALL (    1288 calls)
     g_psi        :      1.88s CPU      1.89s WALL (    1003 calls)
     rdiaghg      :     46.23s CPU     46.21s WALL (    1267 calls)
     regterg:over :     32.43s CPU     32.44s WALL (    1003 calls)
     regterg:upda :     23.54s CPU     23.53s WALL (    1003 calls)
     regterg:last :     10.40s CPU     10.40s WALL (     287 calls)

     Called by h_psi:
     h_psi:pot    :    460.67s CPU    461.17s WALL (    1288 calls)
     h_psi:calbec :     41.63s CPU     41.63s WALL (    1288 calls)
     vloc_psi     :    376.62s CPU    377.14s WALL (    1288 calls)
     add_vuspsi   :     42.42s CPU     42.39s WALL (    1288 calls)

     General routines
     calbec       :     44.42s CPU     44.42s WALL (    1340 calls)
     fft          :     34.15s CPU     39.27s WALL (    6090 calls)
     fftw         :    356.32s CPU    356.75s WALL (  126396 calls)
 
     Parallel routines
     fft_scatter  :    125.45s CPU    130.67s WALL (  132486 calls)
 
     PWSCF        : 14m43.69s CPU    15m 0.48s WALL

 
   This run was terminated on:  12:30: 6  30Aug2018            

=------------------------------------------------------------------------------=
   JOB DONE.
=------------------------------------------------------------------------------=
