
     Program PWSCF v.6.1 (svn rev. 13369) starts on 12May2020 at 10:27:51 

     This program is part of the open-source Quantum ESPRESSO suite
     for quantum simulation of materials; please cite
         "P. Giannozzi et al., J. Phys.:Condens. Matter 21 395502 (2009);
          URL http://www.quantum-espresso.org", 
     in publications or presentations arising from this work. More details at
     http://www.quantum-espresso.org/quote

     Parallel version (MPI), running on    96 processors
     K-points division:     npool     =       6
     R & G space division:  proc/nbgrp/npool/nimage =      16
     Reading input from scf.in
Warning: card &IONS ignored
Warning: card / ignored

     Current dimensions of program PWSCF are:
     Max number of different atomic species (ntypx) = 10
     Max number of k-points (npk) =  40000
     Max angular momentum in pseudopotentials (lmaxx) =  3

     Subspace diagonalization in iterative solution of the eigenvalue problem:
     a serial algorithm will be used

 
     Parallelization info
     --------------------
     sticks:   dense  smooth     PW     G-vecs:    dense   smooth      PW
     Min         252     252     67                12125    12125    1669
     Max         254     254     68                12129    12129    1672
     Sum        4049    4049   1085               194039   194039   26745
 


     bravais-lattice index     =            1
     lattice parameter (alat)  =      13.4862  a.u.
     unit-cell volume          =    2452.8358 (a.u.)^3
     number of atoms/cell      =           63
     number of atomic types    =            2
     number of electrons       =       254.00 (up: 127.00, down: 127.00)
     number of Kohn-Sham states=          152
     kinetic-energy cutoff     =      70.0000  Ry
     charge density cutoff     =     280.0000  Ry
     convergence threshold     =      1.0E-06
     mixing beta               =       0.5000
     number of iterations used =            8  plain     mixing
     Exchange-correlation      = PBE ( 1  4  3  4 0 0)

     celldm(1)=  13.486197  celldm(2)=   0.000000  celldm(3)=   0.000000
     celldm(4)=   0.000000  celldm(5)=   0.000000  celldm(6)=   0.000000

     crystal axes: (cart. coord. in units of alat)
               a(1) = (   1.000000   0.000000   0.000000 )  
               a(2) = (   0.000000   1.000000   0.000000 )  
               a(3) = (   0.000000   0.000000   1.000000 )  

     reciprocal axes: (cart. coord. in units 2 pi/alat)
               b(1) = (  1.000000  0.000000  0.000000 )  
               b(2) = (  0.000000  1.000000  0.000000 )  
               b(3) = (  0.000000  0.000000  1.000000 )  


     PseudoPot. # 1 for C  read from file:
     /home/tjsmart/Pseudo/C_ONCV_PBE-1.0.upf
     MD5 check sum: 72b63e32b2fd29504de26a4901699f60
     Pseudo is Norm-conserving, Zval =  4.0
     Generated using ONCVPSP code by D. R. Hamann
     Using radial grid of 1248 points,  4 beta functions with: 
                l(1) =   0
                l(2) =   0
                l(3) =   1
                l(4) =   1

     PseudoPot. # 2 for N  read from file:
     /home/tjsmart/Pseudo/N_ONCV_PBE-1.0.upf
     MD5 check sum: 09890da6b2972017450f7114a6086fad
     Pseudo is Norm-conserving, Zval =  5.0
     Generated using ONCVPSP code by D. R. Hamann
     Using radial grid of 1058 points,  4 beta functions with: 
                l(1) =   0
                l(2) =   0
                l(3) =   1
                l(4) =   1

     atomic species   valence    mass     pseudopotential
        C              4.00    12.01110     C ( 1.00)
        N              5.00    14.00670     N ( 1.00)

     Starting magnetic structure 
     atomic species   magnetization
        C            0.200
        N            0.200

      6 Sym. Ops. (no inversion) found


                                    s                        frac. trans.

      isym =  1     identity                                     

 cryst.   s( 1) = (     1          0          0      )
                  (     0          1          0      )
                  (     0          0          1      )

 cart.    s( 1) = (  1.0000000  0.0000000  0.0000000 )
                  (  0.0000000  1.0000000  0.0000000 )
                  (  0.0000000  0.0000000  1.0000000 )


      isym =  2     120 deg rotation - cart. axis [-1,-1,-1]     

 cryst.   s( 2) = (     0          0          1      )
                  (     1          0          0      )
                  (     0          1          0      )

 cart.    s( 2) = (  0.0000000  1.0000000  0.0000000 )
                  (  0.0000000  0.0000000  1.0000000 )
                  (  1.0000000  0.0000000  0.0000000 )


      isym =  3     120 deg rotation - cart. axis [1,1,1]        

 cryst.   s( 3) = (     0          1          0      )
                  (     0          0          1      )
                  (     1          0          0      )

 cart.    s( 3) = (  0.0000000  0.0000000  1.0000000 )
                  (  1.0000000  0.0000000  0.0000000 )
                  (  0.0000000  1.0000000  0.0000000 )


      isym =  4     inv. 180 deg rotation - cart. axis [1,-1,0]  

 cryst.   s( 4) = (     0          1          0      )
                  (     1          0          0      )
                  (     0          0          1      )

 cart.    s( 4) = (  0.0000000  1.0000000  0.0000000 )
                  (  1.0000000  0.0000000  0.0000000 )
                  (  0.0000000  0.0000000  1.0000000 )


      isym =  5     inv. 180 deg rotation - cart. axis [-1,0,1]  

 cryst.   s( 5) = (     0          0          1      )
                  (     0          1          0      )
                  (     1          0          0      )

 cart.    s( 5) = (  0.0000000  0.0000000  1.0000000 )
                  (  0.0000000  1.0000000  0.0000000 )
                  (  1.0000000  0.0000000  0.0000000 )


      isym =  6     inv. 180 deg rotation - cart. axis [0,1,-1]  

 cryst.   s( 6) = (     1          0          0      )
                  (     0          0          1      )
                  (     0          1          0      )

 cart.    s( 6) = (  1.0000000  0.0000000  0.0000000 )
                  (  0.0000000  0.0000000  1.0000000 )
                  (  0.0000000  1.0000000  0.0000000 )


     point group C_3v (3m)  
     there are  3 classes
     the character table:

       E     2C3   3s_v 
A_1    1.00  1.00  1.00
A_2    1.00  1.00 -1.00
E      2.00 -1.00  0.00

     the symmetry operations in each class and the name of the first element:

     E        1
          identity                                               
     2C3      2    3
          120 deg rotation - cart. axis [-1,-1,-1]               
     3s_v     4    5    6
          inv. 180 deg rotation - cart. axis [1,-1,0]            

   Cartesian axes

     site n.     atom                  positions (alat units)
         1           C   tau(   1) = (   0.3757857   0.3757857   0.8735578  )
         2           C   tau(   2) = (   0.5002946   0.0004709   0.0004709  )
         3           C   tau(   3) = (   0.4999700  -0.0004888   0.4999700  )
         4           C   tau(   4) = (   0.0004709   0.5002946   0.0004709  )
         5           C   tau(   5) = (  -0.0004888   0.4999700   0.4999700  )
         6           C   tau(   6) = (  -0.0001238  -0.0001238  -0.0001238  )
         7           C   tau(   7) = (   0.0004709   0.0004709   0.5002946  )
         8           C   tau(   8) = (   0.2504900   0.2504900  -0.0008524  )
         9           C   tau(   9) = (   0.2515105   0.2515105   0.4965963  )
        10           C   tau(  10) = (   0.2501132   0.7491508   0.0008217  )
        11           C   tau(  11) = (   0.2508849   0.7487476   0.5021807  )
        12           C   tau(  12) = (   0.7491508   0.2501132   0.0008217  )
        13           C   tau(  13) = (   0.7487476   0.2508849   0.5021807  )
        14           C   tau(  14) = (   0.7494881   0.7494881  -0.0009427  )
        15           C   tau(  15) = (   0.4999700   0.4999700  -0.0004888  )
        16           C   tau(  16) = (   0.7484720   0.7484720   0.4982479  )
        17           C   tau(  17) = (   0.5021807   0.2508849   0.7487476  )
        18           C   tau(  18) = (   0.5021807   0.7487476   0.2508849  )
        19           C   tau(  19) = (   0.4982479   0.7484720   0.7484720  )
        20           C   tau(  20) = (  -0.0008524   0.2504900   0.2504900  )
        21           C   tau(  21) = (   0.0008217   0.2501132   0.7491508  )
        22           C   tau(  22) = (   0.0008217   0.7491508   0.2501132  )
        23           C   tau(  23) = (  -0.0009427   0.7494881   0.7494881  )
        24           C   tau(  24) = (   0.2515105   0.4965963   0.2515105  )
        25           C   tau(  25) = (   0.2508849   0.5021807   0.7487476  )
        26           C   tau(  26) = (   0.2504900  -0.0008524   0.2504900  )
        27           C   tau(  27) = (   0.2501132   0.0008217   0.7491508  )
        28           C   tau(  28) = (   0.7487476   0.5021807   0.2508849  )
        29           C   tau(  29) = (   0.7484720   0.4982479   0.7484720  )
        30           C   tau(  30) = (   0.4965963   0.2515105   0.2515105  )
        31           C   tau(  31) = (   0.7491508   0.0008217   0.2501132  )
        32           C   tau(  32) = (   0.6241707   0.8735355   0.6241707  )
        33           C   tau(  33) = (   0.6364625   0.3616775   0.6364625  )
        34           C   tau(  34) = (   0.3756555   0.8762245   0.8762245  )
        35           C   tau(  35) = (   0.3757857   0.8735578   0.3757857  )
        36           C   tau(  36) = (   0.8762245   0.3756555   0.8762245  )
        37           C   tau(  37) = (   0.8735578   0.3757857   0.3757857  )
        38           C   tau(  38) = (   0.8744535   0.8744535   0.8744535  )
        39           C   tau(  39) = (   0.8762245   0.8762245   0.3756555  )
        40           C   tau(  40) = (   0.1253681   0.1253681   0.8744533  )
        41           C   tau(  41) = (   0.1246732   0.1246732   0.3748742  )
        42           C   tau(  42) = (   0.1234813   0.6242908   0.8761947  )
        43           C   tau(  43) = (   0.1265014   0.6235517   0.3763968  )
        44           C   tau(  44) = (   0.6242908   0.1234813   0.8761947  )
        45           C   tau(  45) = (   0.6235517   0.1265014   0.3763968  )
        46           C   tau(  46) = (   0.6242908   0.8761947   0.1234813  )
        47           C   tau(  47) = (   0.6241707   0.6241707   0.8735355  )
        48           C   tau(  48) = (   0.3748742   0.1246732   0.1246732  )
        49           C   tau(  49) = (   0.3763968   0.1265014   0.6235517  )
        50           C   tau(  50) = (   0.3763968   0.6235517   0.1265014  )
        51           C   tau(  51) = (   0.3616775   0.6364625   0.6364625  )
        52           C   tau(  52) = (   0.8744533   0.1253681   0.1253681  )
        53           C   tau(  53) = (   0.8761947   0.1234813   0.6242908  )
        54           C   tau(  54) = (   0.8761947   0.6242908   0.1234813  )
        55           C   tau(  55) = (   0.8735355   0.6241707   0.6241707  )
        56           C   tau(  56) = (   0.1246732   0.3748742   0.1246732  )
        57           C   tau(  57) = (   0.1265014   0.3763968   0.6235517  )
        58           C   tau(  58) = (   0.1253681   0.8744533   0.1253681  )
        59           C   tau(  59) = (   0.1234813   0.8761947   0.6242908  )
        60           C   tau(  60) = (   0.6235517   0.3763968   0.1265014  )
        61           C   tau(  61) = (   0.6364625   0.6364625   0.3616775  )
        62           C   tau(  62) = (   0.7494881  -0.0009427   0.7494881  )
        63           N   tau(  63) = (   0.3682581   0.3682581   0.3682581  )

   Crystallographic axes

     site n.     atom                  positions (cryst. coord.)
         1           C   tau(   1) = (  0.3757857  0.3757857  0.8735578  )
         2           C   tau(   2) = (  0.5002946  0.0004709  0.0004709  )
         3           C   tau(   3) = (  0.4999700 -0.0004888  0.4999700  )
         4           C   tau(   4) = (  0.0004709  0.5002946  0.0004709  )
         5           C   tau(   5) = ( -0.0004888  0.4999700  0.4999700  )
         6           C   tau(   6) = ( -0.0001238 -0.0001238 -0.0001238  )
         7           C   tau(   7) = (  0.0004709  0.0004709  0.5002946  )
         8           C   tau(   8) = (  0.2504900  0.2504900 -0.0008524  )
         9           C   tau(   9) = (  0.2515105  0.2515105  0.4965963  )
        10           C   tau(  10) = (  0.2501132  0.7491508  0.0008217  )
        11           C   tau(  11) = (  0.2508849  0.7487476  0.5021807  )
        12           C   tau(  12) = (  0.7491508  0.2501132  0.0008217  )
        13           C   tau(  13) = (  0.7487476  0.2508849  0.5021807  )
        14           C   tau(  14) = (  0.7494881  0.7494881 -0.0009427  )
        15           C   tau(  15) = (  0.4999700  0.4999700 -0.0004888  )
        16           C   tau(  16) = (  0.7484720  0.7484720  0.4982479  )
        17           C   tau(  17) = (  0.5021807  0.2508849  0.7487476  )
        18           C   tau(  18) = (  0.5021807  0.7487476  0.2508849  )
        19           C   tau(  19) = (  0.4982479  0.7484720  0.7484720  )
        20           C   tau(  20) = ( -0.0008524  0.2504900  0.2504900  )
        21           C   tau(  21) = (  0.0008217  0.2501132  0.7491508  )
        22           C   tau(  22) = (  0.0008217  0.7491508  0.2501132  )
        23           C   tau(  23) = ( -0.0009427  0.7494881  0.7494881  )
        24           C   tau(  24) = (  0.2515105  0.4965963  0.2515105  )
        25           C   tau(  25) = (  0.2508849  0.5021807  0.7487476  )
        26           C   tau(  26) = (  0.2504900 -0.0008524  0.2504900  )
        27           C   tau(  27) = (  0.2501132  0.0008217  0.7491508  )
        28           C   tau(  28) = (  0.7487476  0.5021807  0.2508849  )
        29           C   tau(  29) = (  0.7484720  0.4982479  0.7484720  )
        30           C   tau(  30) = (  0.4965963  0.2515105  0.2515105  )
        31           C   tau(  31) = (  0.7491508  0.0008217  0.2501132  )
        32           C   tau(  32) = (  0.6241707  0.8735355  0.6241707  )
        33           C   tau(  33) = (  0.6364625  0.3616775  0.6364625  )
        34           C   tau(  34) = (  0.3756555  0.8762245  0.8762245  )
        35           C   tau(  35) = (  0.3757857  0.8735578  0.3757857  )
        36           C   tau(  36) = (  0.8762245  0.3756555  0.8762245  )
        37           C   tau(  37) = (  0.8735578  0.3757857  0.3757857  )
        38           C   tau(  38) = (  0.8744535  0.8744535  0.8744535  )
        39           C   tau(  39) = (  0.8762245  0.8762245  0.3756555  )
        40           C   tau(  40) = (  0.1253681  0.1253681  0.8744533  )
        41           C   tau(  41) = (  0.1246732  0.1246732  0.3748742  )
        42           C   tau(  42) = (  0.1234813  0.6242908  0.8761947  )
        43           C   tau(  43) = (  0.1265014  0.6235517  0.3763968  )
        44           C   tau(  44) = (  0.6242908  0.1234813  0.8761947  )
        45           C   tau(  45) = (  0.6235517  0.1265014  0.3763968  )
        46           C   tau(  46) = (  0.6242908  0.8761947  0.1234813  )
        47           C   tau(  47) = (  0.6241707  0.6241707  0.8735355  )
        48           C   tau(  48) = (  0.3748742  0.1246732  0.1246732  )
        49           C   tau(  49) = (  0.3763968  0.1265014  0.6235517  )
        50           C   tau(  50) = (  0.3763968  0.6235517  0.1265014  )
        51           C   tau(  51) = (  0.3616775  0.6364625  0.6364625  )
        52           C   tau(  52) = (  0.8744533  0.1253681  0.1253681  )
        53           C   tau(  53) = (  0.8761947  0.1234813  0.6242908  )
        54           C   tau(  54) = (  0.8761947  0.6242908  0.1234813  )
        55           C   tau(  55) = (  0.8735355  0.6241707  0.6241707  )
        56           C   tau(  56) = (  0.1246732  0.3748742  0.1246732  )
        57           C   tau(  57) = (  0.1265014  0.3763968  0.6235517  )
        58           C   tau(  58) = (  0.1253681  0.8744533  0.1253681  )
        59           C   tau(  59) = (  0.1234813  0.8761947  0.6242908  )
        60           C   tau(  60) = (  0.6235517  0.3763968  0.1265014  )
        61           C   tau(  61) = (  0.6364625  0.6364625  0.3616775  )
        62           C   tau(  62) = (  0.7494881 -0.0009427  0.7494881  )
        63           N   tau(  63) = (  0.3682581  0.3682581  0.3682581  )

     number of k points=     6  Marzari-Vanderbilt smearing, width (Ry)=  0.0010
                       cart. coord. in units 2pi/alat
        k(    1) = (   0.0000000   0.0000000   0.0000000), wk =   0.0370370
        k(    2) = (   0.0000000   0.0000000   0.3333333), wk =   0.2222222
        k(    3) = (   0.0000000   0.3333333   0.3333333), wk =   0.2222222
        k(    4) = (   0.3333333   0.3333333   0.3333333), wk =   0.0740741
        k(    5) = (  -0.3333333   0.0000000   0.3333333), wk =   0.2222222
        k(    6) = (   0.3333333  -0.3333333   0.3333333), wk =   0.2222222

                       cryst. coord.
        k(    1) = (   0.0000000   0.0000000   0.0000000), wk =   0.0370370
        k(    2) = (   0.0000000   0.0000000   0.3333333), wk =   0.2222222
        k(    3) = (   0.0000000   0.3333333   0.3333333), wk =   0.2222222
        k(    4) = (   0.3333333   0.3333333   0.3333333), wk =   0.0740741
        k(    5) = (  -0.3333333   0.0000000   0.3333333), wk =   0.2222222
        k(    6) = (   0.3333333  -0.3333333   0.3333333), wk =   0.2222222

     Dense  grid:   194039 G-vectors     FFT dimensions: (  72,  72,  72)

     Estimated max dynamical RAM per process >      60.23MB

     Estimated total allocated dynamical RAM >    5782.56MB
     Generating pointlists ...
     new r_m :   0.0855 (alat units)  1.1524 (a.u.) for type    1
     new r_m :   0.0863 (alat units)  1.1633 (a.u.) for type    2

     Initial potential from superposition of free atoms

     starting charge  252.99722, renormalised to  254.00000
     Starting wfc are  252 randomized atomic wfcs

     total cpu time spent up to now is        3.6 secs

     per-process dynamical memory:    59.5 Mb

     Self-consistent Calculation

     iteration #  1     ecut=    70.00 Ry     beta=0.50
     Davidson diagonalization with overlap
     ethr =  1.00E-02,  avg # of iterations =  3.0

     total cpu time spent up to now is        6.0 secs

     total energy              =    -724.33021341 Ry
     Harris-Foulkes estimate   =    -724.78169010 Ry
     estimated scf accuracy    <       4.24193649 Ry

     total magnetization       =    -0.00 Bohr mag/cell
     absolute magnetization    =     0.90 Bohr mag/cell

     iteration #  2     ecut=    70.00 Ry     beta=0.50
     Davidson diagonalization with overlap
     ethr =  1.67E-03,  avg # of iterations =  2.0

     total cpu time spent up to now is        7.8 secs

     total energy              =    -724.65807025 Ry
     Harris-Foulkes estimate   =    -724.57633769 Ry
     estimated scf accuracy    <       0.67094030 Ry

     total magnetization       =    -0.00 Bohr mag/cell
     absolute magnetization    =     0.35 Bohr mag/cell

     iteration #  3     ecut=    70.00 Ry     beta=0.50
     Davidson diagonalization with overlap
     ethr =  2.64E-04,  avg # of iterations =  8.8

     total cpu time spent up to now is       12.4 secs

     total energy              =    -724.72811968 Ry
     Harris-Foulkes estimate   =    -724.76887379 Ry
     estimated scf accuracy    <       0.15175618 Ry

     total magnetization       =     0.00 Bohr mag/cell
     absolute magnetization    =     0.11 Bohr mag/cell

     iteration #  4     ecut=    70.00 Ry     beta=0.50
     Davidson diagonalization with overlap
     ethr =  5.97E-05,  avg # of iterations =  7.9

     total cpu time spent up to now is       16.4 secs

     total energy              =    -724.76643543 Ry
     Harris-Foulkes estimate   =    -724.76408817 Ry
     estimated scf accuracy    <       0.01325091 Ry

     total magnetization       =    -0.00 Bohr mag/cell
     absolute magnetization    =     0.07 Bohr mag/cell

     iteration #  5     ecut=    70.00 Ry     beta=0.50
     Davidson diagonalization with overlap
     ethr =  5.22E-06,  avg # of iterations =  7.6

     total cpu time spent up to now is       20.6 secs

     total energy              =    -724.76977313 Ry
     Harris-Foulkes estimate   =    -724.76947438 Ry
     estimated scf accuracy    <       0.00153548 Ry

     total magnetization       =    -0.00 Bohr mag/cell
     absolute magnetization    =     0.04 Bohr mag/cell

     iteration #  6     ecut=    70.00 Ry     beta=0.50
     Davidson diagonalization with overlap
     ethr =  6.05E-07,  avg # of iterations =  5.1

     total cpu time spent up to now is       23.8 secs

     total energy              =    -724.77003122 Ry
     Harris-Foulkes estimate   =    -724.77005324 Ry
     estimated scf accuracy    <       0.00020087 Ry

     total magnetization       =    -0.00 Bohr mag/cell
     absolute magnetization    =     0.02 Bohr mag/cell

     iteration #  7     ecut=    70.00 Ry     beta=0.50
     Davidson diagonalization with overlap
     ethr =  7.91E-08,  avg # of iterations =  3.0

     total cpu time spent up to now is       25.8 secs

     total energy              =    -724.77008762 Ry
     Harris-Foulkes estimate   =    -724.77009692 Ry
     estimated scf accuracy    <       0.00003695 Ry

     total magnetization       =    -0.00 Bohr mag/cell
     absolute magnetization    =     0.01 Bohr mag/cell

     iteration #  8     ecut=    70.00 Ry     beta=0.50
     Davidson diagonalization with overlap
     ethr =  1.45E-08,  avg # of iterations =  2.8

     total cpu time spent up to now is       27.6 secs

     total energy              =    -724.77009579 Ry
     Harris-Foulkes estimate   =    -724.77009570 Ry
     estimated scf accuracy    <       0.00000290 Ry

     total magnetization       =    -0.00 Bohr mag/cell
     absolute magnetization    =     0.01 Bohr mag/cell

     iteration #  9     ecut=    70.00 Ry     beta=0.50
     Davidson diagonalization with overlap
     ethr =  1.14E-09,  avg # of iterations =  3.0
 
     Magnetic moment per site:
     atom:    1    charge:    1.8220    magn:   -0.0000    constr:    0.0000
     atom:    2    charge:    1.8430    magn:   -0.0000    constr:    0.0000
     atom:    3    charge:    1.8308    magn:    0.0000    constr:    0.0000
     atom:    4    charge:    1.8430    magn:   -0.0000    constr:    0.0000
     atom:    5    charge:    1.8308    magn:    0.0000    constr:    0.0000
     atom:    6    charge:    1.8202    magn:    0.0000    constr:    0.0000
     atom:    7    charge:    1.8430    magn:   -0.0000    constr:    0.0000
     atom:    8    charge:    1.8237    magn:    0.0000    constr:    0.0000
     atom:    9    charge:    1.7969    magn:   -0.0001    constr:    0.0000
     atom:   10    charge:    1.8192    magn:    0.0000    constr:    0.0000
     atom:   11    charge:    1.8350    magn:    0.0000    constr:    0.0000
     atom:   12    charge:    1.8192    magn:    0.0000    constr:    0.0000
     atom:   13    charge:    1.8350    magn:    0.0000    constr:    0.0000
     atom:   14    charge:    1.8226    magn:    0.0000    constr:    0.0000
     atom:   15    charge:    1.8308    magn:    0.0000    constr:    0.0000
     atom:   16    charge:    1.8300    magn:    0.0000    constr:    0.0000
     atom:   17    charge:    1.8350    magn:    0.0000    constr:    0.0000
     atom:   18    charge:    1.8350    magn:    0.0000    constr:    0.0000
     atom:   19    charge:    1.8300    magn:    0.0000    constr:    0.0000
     atom:   20    charge:    1.8237    magn:    0.0000    constr:    0.0000
     atom:   21    charge:    1.8192    magn:    0.0000    constr:    0.0000
     atom:   22    charge:    1.8192    magn:    0.0000    constr:    0.0000
     atom:   23    charge:    1.8226    magn:    0.0000    constr:    0.0000
     atom:   24    charge:    1.7969    magn:   -0.0001    constr:    0.0000
     atom:   25    charge:    1.8350    magn:    0.0000    constr:    0.0000
     atom:   26    charge:    1.8237    magn:    0.0000    constr:    0.0000
     atom:   27    charge:    1.8192    magn:    0.0000    constr:    0.0000
     atom:   28    charge:    1.8350    magn:    0.0000    constr:    0.0000
     atom:   29    charge:    1.8300    magn:    0.0000    constr:    0.0000
     atom:   30    charge:    1.7969    magn:   -0.0001    constr:    0.0000
     atom:   31    charge:    1.8192    magn:    0.0000    constr:    0.0000
     atom:   32    charge:    1.8236    magn:    0.0000    constr:    0.0000
     atom:   33    charge:    1.8444    magn:    0.0000    constr:    0.0000
     atom:   34    charge:    1.8201    magn:    0.0000    constr:    0.0000
     atom:   35    charge:    1.8220    magn:   -0.0000    constr:    0.0000
     atom:   36    charge:    1.8201    magn:    0.0000    constr:    0.0000
     atom:   37    charge:    1.8220    magn:   -0.0000    constr:    0.0000
     atom:   38    charge:    1.8273    magn:    0.0000    constr:    0.0000
     atom:   39    charge:    1.8201    magn:    0.0000    constr:    0.0000
     atom:   40    charge:    1.8264    magn:    0.0000    constr:    0.0000
     atom:   41    charge:    1.8310    magn:    0.0000    constr:    0.0000
     atom:   42    charge:    1.8271    magn:    0.0000    constr:    0.0000
     atom:   43    charge:    1.8216    magn:    0.0000    constr:    0.0000
     atom:   44    charge:    1.8271    magn:    0.0000    constr:    0.0000
     atom:   45    charge:    1.8216    magn:    0.0000    constr:    0.0000
     atom:   46    charge:    1.8271    magn:    0.0000    constr:    0.0000
     atom:   47    charge:    1.8236    magn:    0.0000    constr:    0.0000
     atom:   48    charge:    1.8310    magn:    0.0000    constr:    0.0000
     atom:   49    charge:    1.8216    magn:    0.0000    constr:    0.0000
     atom:   50    charge:    1.8216    magn:    0.0000    constr:    0.0000
     atom:   51    charge:    1.8444    magn:    0.0000    constr:    0.0000
     atom:   52    charge:    1.8264    magn:    0.0000    constr:    0.0000
     atom:   53    charge:    1.8271    magn:    0.0000    constr:    0.0000
     atom:   54    charge:    1.8271    magn:    0.0000    constr:    0.0000
     atom:   55    charge:    1.8236    magn:    0.0000    constr:    0.0000
     atom:   56    charge:    1.8310    magn:    0.0000    constr:    0.0000
     atom:   57    charge:    1.8216    magn:    0.0000    constr:    0.0000
     atom:   58    charge:    1.8264    magn:    0.0000    constr:    0.0000
     atom:   59    charge:    1.8271    magn:    0.0000    constr:    0.0000
     atom:   60    charge:    1.8216    magn:    0.0000    constr:    0.0000
     atom:   61    charge:    1.8444    magn:    0.0000    constr:    0.0000
     atom:   62    charge:    1.8226    magn:    0.0000    constr:    0.0000
     atom:   63    charge:    2.9455    magn:    0.0007    constr:    0.0000

     total cpu time spent up to now is       29.8 secs

     End of self-consistent calculation

 ------ SPIN UP ------------


          k = 0.0000 0.0000 0.0000 ( 24207 PWs)   bands (ev):

    -8.5499  -6.8780  -6.2940  -6.2940  -6.1840  -6.1840  -5.8847  -4.9053
    -4.1500  -4.1500  -4.1191  -4.1191  -4.0478  -4.0311  -4.0311  -3.9513
    -3.8827  -3.8827  -3.3696  -2.9632  -2.6857  -2.6857  -2.1120  -0.3757
    -0.3757  -0.3584  -0.3293  -0.1110   0.1591   0.1591   0.2684   0.2684
     0.3416   0.5881   0.8140   0.8140   0.9374   0.9517   0.9517   1.0074
     1.0158   1.0158   1.3217   1.3217   3.0675   3.9371   3.9371   4.0398
     4.1704   4.1704   4.1727   4.2286   4.2286   4.2321   4.3901   4.3901
     4.4542   4.4542   4.5310   4.6284   4.6286   4.6286   4.6289   4.7405
     4.7405   4.8649   4.9261   4.9261   5.0290   5.1776   5.1776   5.2645
     5.3140   5.3140   5.3460   5.3743   5.3743   6.0034   6.0034   6.0437
     6.6080   6.6080   6.6775   6.9805   6.9863   6.9863   7.5286   8.3133
     8.3133   8.3682   8.4197   8.4197   8.6173   8.6173   8.7372   8.7675
     8.7675   8.7861   8.8348   8.8348   8.8369   9.2247   9.2328   9.2328
     9.6490   9.6490   9.8278   9.8465   9.8721   9.8746   9.8746   9.9193
     9.9193   9.9442   9.9557   9.9557  10.0383  10.0383  10.2363  10.2573
    10.2573  11.0837  12.3168  12.4192  12.4192  14.0313  15.2672  15.2672
    17.2807  17.3242  17.3242  17.4608  17.5313  17.5313  17.7883  17.8845
    17.8845  17.9926  17.9926  18.3464  18.9008  18.9008  18.9383  20.5981
    20.7507  20.7507  20.8001  20.8754  20.8754  20.9611  20.9664  20.9665

     occupation numbers 
     1.0000   1.0000   1.0000   1.0000   1.0000   1.0000   1.0000   1.0000
     1.0000   1.0000   1.0000   1.0000   1.0000   1.0000   1.0000   1.0000
     1.0000   1.0000   1.0000   1.0000   1.0000   1.0000   1.0000   1.0000
     1.0000   1.0000   1.0000   1.0000   1.0000   1.0000   1.0000   1.0000
     1.0000   1.0000   1.0000   1.0000   1.0000   1.0000   1.0000   1.0000
     1.0000   1.0000   1.0000   1.0000   1.0000   1.0000   1.0000   1.0000
     1.0000   1.0000   1.0000   1.0000   1.0000   1.0000   1.0000   1.0000
     1.0000   1.0000   1.0000   1.0000   1.0000   1.0000   1.0000   1.0000
     1.0000   1.0000   1.0000   1.0000   1.0000   1.0000   1.0000   1.0000
     1.0000   1.0000   1.0000   1.0000   1.0000   1.0000   1.0000   1.0000
     1.0000   1.0000   1.0000   1.0000   1.0000   1.0000   1.0000   1.0000
     1.0000   1.0000   1.0000   1.0000   1.0000   1.0000   1.0000   1.0000
     1.0000   1.0000   1.0000   1.0000   1.0000   1.0000   1.0000   1.0000
     1.0000   1.0000   1.0000   1.0000   1.0000   1.0000   1.0000   1.0000
     1.0000   1.0000   1.0000   1.0000   1.0000   1.0000   1.0000   1.0000
     1.0000   1.0000   1.0000   1.0000   1.0000   1.0000   0.0000   0.0000
     0.0000   0.0000   0.0000   0.0000   0.0000   0.0000   0.0000   0.0000
     0.0000   0.0000   0.0000   0.0000   0.0000   0.0000   0.0000   0.0000
     0.0000   0.0000   0.0000   0.0000   0.0000   0.0000   0.0000   0.0000

          k = 0.0000 0.0000 0.3333 ( 24280 PWs)   bands (ev):

    -8.3145  -7.5498  -6.5078  -6.0484  -5.9424  -5.8269  -5.4877  -5.3085
    -5.1931  -4.9871  -4.5119  -4.1146  -3.8343  -3.7961  -3.6969  -3.4336
    -3.2286  -3.1567  -2.9380  -2.5985  -2.5201  -2.4030  -2.3236  -1.7728
    -0.8273  -0.7067  -0.5994  -0.3499   0.1845   0.2834   0.3387   0.3835
     0.4663   0.5473   0.5661   0.6546   0.7233   0.7488   0.9658   1.4731
     1.9939   2.0062   2.1365   2.2343   2.4025   2.4765   2.4783   2.7367
     2.9532   2.9950   3.1545   3.1668   3.8944   3.9793   4.0436   4.0566
     4.2802   4.3706   4.5136   4.5495   5.0920   5.1112   5.1426   5.1943
     5.1943   5.6035   5.6126   5.7124   5.7241   6.0668   6.1083   6.1678
     6.1868   6.3194   6.4021   6.4477   6.4873   6.6084   6.6227   6.7403
     6.7516   6.8787   6.8928   6.9268   7.1302   7.1573   7.1805   7.2475
     7.4216   7.4635   7.6691   7.7709   7.8300   8.0393   8.1509   8.2664
     8.2884   8.4306   8.6801   8.6984   8.7605   9.0993   9.1779   9.3555
     9.3711   9.6316   9.6483   9.7092   9.7559   9.9076   9.9304   9.9346
     9.9628   9.9950  10.0990  10.1213  10.1480  10.2644  10.2708  10.3610
    10.3666  11.3733  11.6953  11.7233  12.0465  13.8030  14.9628  15.1404
    17.1929  17.2895  17.9417  18.3033  18.3480  18.4786  18.5096  18.6115
    18.8207  18.8333  18.9927  19.0802  19.2053  19.8248  19.8594  20.4680
    20.6596  20.6824  20.7806  20.7837  20.8269  20.8478  20.9055  20.9451

     occupation numbers 
     1.0000   1.0000   1.0000   1.0000   1.0000   1.0000   1.0000   1.0000
     1.0000   1.0000   1.0000   1.0000   1.0000   1.0000   1.0000   1.0000
     1.0000   1.0000   1.0000   1.0000   1.0000   1.0000   1.0000   1.0000
     1.0000   1.0000   1.0000   1.0000   1.0000   1.0000   1.0000   1.0000
     1.0000   1.0000   1.0000   1.0000   1.0000   1.0000   1.0000   1.0000
     1.0000   1.0000   1.0000   1.0000   1.0000   1.0000   1.0000   1.0000
     1.0000   1.0000   1.0000   1.0000   1.0000   1.0000   1.0000   1.0000
     1.0000   1.0000   1.0000   1.0000   1.0000   1.0000   1.0000   1.0000
     1.0000   1.0000   1.0000   1.0000   1.0000   1.0000   1.0000   1.0000
     1.0000   1.0000   1.0000   1.0000   1.0000   1.0000   1.0000   1.0000
     1.0000   1.0000   1.0000   1.0000   1.0000   1.0000   1.0000   1.0000
     1.0000   1.0000   1.0000   1.0000   1.0000   1.0000   1.0000   1.0000
     1.0000   1.0000   1.0000   1.0000   1.0000   1.0000   1.0000   1.0000
     1.0000   1.0000   1.0000   1.0000   1.0000   1.0000   1.0000   1.0000
     1.0000   1.0000   1.0000   1.0000   1.0000   1.0000   1.0000   1.0000
     1.0000   1.0000   1.0000   1.0000   1.0000   1.0000   1.0000   0.0001
     0.0000   0.0000   0.0000   0.0000   0.0000   0.0000   0.0000   0.0000
     0.0000   0.0000   0.0000   0.0000   0.0000   0.0000   0.0000   0.0000
     0.0000   0.0000   0.0000   0.0000   0.0000   0.0000   0.0000   0.0000

          k = 0.0000 0.3333 0.3333 ( 24236 PWs)   bands (ev):

    -8.0908  -7.3536  -7.2443  -6.5618  -5.9456  -5.6850  -5.3144  -5.0338
    -5.0026  -4.8478  -4.4948  -4.2745  -4.2351  -3.9469  -3.5380  -3.5127
    -2.7598  -2.3880  -2.3309  -2.3260  -2.2127  -2.1915  -2.0543  -1.9011
    -1.5124  -1.3140  -1.1015  -0.9279  -0.5506  -0.0111   0.0623   0.1129
     0.1782   0.4719   0.6893   1.1744   1.1878   1.2911   1.3667   1.4048
     1.4502   1.4599   1.9388   2.0664   2.1294   2.4059   2.7292   2.8279
     2.9598   3.5214   3.6530   3.7034   3.7830   3.8089   3.9699   4.0233
     4.0963   4.5534   4.6746   4.8271   5.0109   5.0577   5.1401   5.2993
     5.3626   5.5828   5.6451   5.6845   5.7472   5.9888   6.0248   6.0765
     6.1314   6.2220   6.2593   6.4981   6.5319   6.5958   6.6424   6.8549
     6.8982   6.9347   7.0247   7.0371   7.2332   7.2871   7.4993   7.7108
     7.9242   7.9437   8.0751   8.0860   8.1113   8.2103   8.2562   8.3103
     8.3374   8.3976   8.5386   8.6140   8.7036   8.7096   8.8397   8.8786
     9.0491   9.1857   9.2351   9.3066   9.4570   9.4801   9.5730   9.6213
     9.6934   9.7976   9.8967  10.0374  10.0445  10.1032  10.4441  10.7574
    11.0216  11.1978  11.5460  11.8707  12.2144  13.6245  14.9025  15.2009
    18.0607  18.1979  18.2404  18.3001  18.3480  18.8210  18.8545  18.9664
    19.1779  19.2305  19.4434  19.4680  19.6960  19.7926  19.9759  20.0149
    20.1966  20.4600  20.4771  20.5062  20.5649  20.5832  20.6106  20.6464

     occupation numbers 
     1.0000   1.0000   1.0000   1.0000   1.0000   1.0000   1.0000   1.0000
     1.0000   1.0000   1.0000   1.0000   1.0000   1.0000   1.0000   1.0000
     1.0000   1.0000   1.0000   1.0000   1.0000   1.0000   1.0000   1.0000
     1.0000   1.0000   1.0000   1.0000   1.0000   1.0000   1.0000   1.0000
     1.0000   1.0000   1.0000   1.0000   1.0000   1.0000   1.0000   1.0000
     1.0000   1.0000   1.0000   1.0000   1.0000   1.0000   1.0000   1.0000
     1.0000   1.0000   1.0000   1.0000   1.0000   1.0000   1.0000   1.0000
     1.0000   1.0000   1.0000   1.0000   1.0000   1.0000   1.0000   1.0000
     1.0000   1.0000   1.0000   1.0000   1.0000   1.0000   1.0000   1.0000
     1.0000   1.0000   1.0000   1.0000   1.0000   1.0000   1.0000   1.0000
     1.0000   1.0000   1.0000   1.0000   1.0000   1.0000   1.0000   1.0000
     1.0000   1.0000   1.0000   1.0000   1.0000   1.0000   1.0000   1.0000
     1.0000   1.0000   1.0000   1.0000   1.0000   1.0000   1.0000   1.0000
     1.0000   1.0000   1.0000   1.0000   1.0000   1.0000   1.0000   1.0000
     1.0000   1.0000   1.0000   1.0000   1.0000   1.0000   1.0000   1.0000
     1.0000   1.0000   1.0000   1.0000   1.0000   1.0000   1.0000   0.0000
     0.0000   0.0000   0.0000   0.0000   0.0000   0.0000   0.0000   0.0000
     0.0000   0.0000   0.0000   0.0000   0.0000   0.0000   0.0000   0.0000
     0.0000   0.0000   0.0000   0.0000   0.0000   0.0000   0.0000   0.0000

          k = 0.3333 0.3333 0.3333 ( 24303 PWs)   bands (ev):

    -7.8826  -7.1731  -6.9956  -6.9956  -6.2713  -6.2391  -6.2391  -5.4608
    -4.1855  -4.0476  -4.0476  -3.5158  -3.3973  -3.3973  -3.3445  -3.3045
    -3.3045  -2.9135  -2.6764  -2.6764  -1.9530  -1.9076  -1.9076  -1.5438
    -1.4596  -1.4596  -1.4109  -1.4109  -1.3821  -1.2306  -1.2306   0.0582
     0.8490   0.8490   0.9890   0.9890   0.9951   1.3058   1.8197   1.8197
     1.8530   1.9202   2.0103   2.0103   2.5909   2.5909   2.6001   2.6821
     2.7131   2.7131   3.1465   3.1465   3.5329   4.0634   4.2916   4.2916
     4.8192   4.9268   4.9389   4.9389   5.0811   5.0811   5.1452   5.3133
     5.3133   5.4105   5.4952   5.4952   5.5993   5.5993   5.6544   6.3831
     6.7321   6.7321   6.9219   6.9640   6.9640   6.9980   7.0643   7.0643
     7.1864   7.1864   7.2276   7.2558   7.2558   7.2683   7.3430   7.3520
     7.3520   7.4878   7.7341   7.7341   7.9230   7.9230   7.9550   7.9738
     8.1759   8.1759   8.2769   8.3036   8.3036   8.4108   8.4704   8.4704
     8.6741   8.6741   8.8708   9.0352   9.1083   9.5257   9.5257   9.7900
     9.7900  10.4754  10.4876  10.4876  10.6002  10.9343  10.9343  11.2576
    11.2629  11.2629  11.5275  11.6649  11.6649  13.5232  15.1938  15.1938
    18.1358  18.2452  18.2452  18.4524  18.6502  18.6502  19.2014  19.3995
    19.3995  19.5350  19.5350  19.5789  19.6093  19.6093  19.6422  19.7454
    19.7454  19.8679  19.9216  19.9216  20.0017  20.0018  20.0187  20.1352

     occupation numbers 
     1.0000   1.0000   1.0000   1.0000   1.0000   1.0000   1.0000   1.0000
     1.0000   1.0000   1.0000   1.0000   1.0000   1.0000   1.0000   1.0000
     1.0000   1.0000   1.0000   1.0000   1.0000   1.0000   1.0000   1.0000
     1.0000   1.0000   1.0000   1.0000   1.0000   1.0000   1.0000   1.0000
     1.0000   1.0000   1.0000   1.0000   1.0000   1.0000   1.0000   1.0000
     1.0000   1.0000   1.0000   1.0000   1.0000   1.0000   1.0000   1.0000
     1.0000   1.0000   1.0000   1.0000   1.0000   1.0000   1.0000   1.0000
     1.0000   1.0000   1.0000   1.0000   1.0000   1.0000   1.0000   1.0000
     1.0000   1.0000   1.0000   1.0000   1.0000   1.0000   1.0000   1.0000
     1.0000   1.0000   1.0000   1.0000   1.0000   1.0000   1.0000   1.0000
     1.0000   1.0000   1.0000   1.0000   1.0000   1.0000   1.0000   1.0000
     1.0000   1.0000   1.0000   1.0000   1.0000   1.0000   1.0000   1.0000
     1.0000   1.0000   1.0000   1.0000   1.0000   1.0000   1.0000   1.0000
     1.0000   1.0000   1.0000   1.0000   1.0000   1.0000   1.0000   1.0000
     1.0000   1.0000   1.0000   1.0000   1.0000   1.0000   1.0000   1.0000
     1.0000   1.0000   1.0000   1.0000   1.0000   1.0000   0.0000   0.0000
     0.0000   0.0000   0.0000   0.0000   0.0000   0.0000   0.0000   0.0000
     0.0000   0.0000   0.0000   0.0000   0.0000   0.0000   0.0000   0.0000
     0.0000   0.0000   0.0000   0.0000   0.0000   0.0000   0.0000   0.0000

          k =-0.3333 0.0000 0.3333 ( 24236 PWs)   bands (ev):

    -8.0776  -7.4789  -7.1130  -6.5517  -5.9727  -5.6890  -5.3710  -5.0338
    -4.9420  -4.7876  -4.5219  -4.2884  -4.2304  -4.0593  -3.6022  -3.3370
    -2.7734  -2.4064  -2.3664  -2.3099  -2.1977  -2.1627  -2.1163  -1.6591
    -1.6508  -1.3204  -1.1273  -0.9770  -0.6183   0.0083   0.0782   0.1217
     0.2475   0.4724   0.8661   1.0615   1.2143   1.2349   1.2405   1.3985
     1.4691   1.5761   1.8454   1.9122   2.1298   2.5720   2.6815   2.8552
     2.9416   3.5165   3.6579   3.7031   3.7819   3.8807   4.0239   4.1073
     4.1783   4.3884   4.6343   4.8128   4.9652   5.0262   5.1857   5.2410
     5.4009   5.5586   5.6461   5.6695   5.7860   6.0377   6.0772   6.1223
     6.1641   6.2120   6.2563   6.4425   6.4786   6.6042   6.6396   6.8262
     6.8902   6.9515   6.9992   7.0892   7.2147   7.3975   7.5022   7.6786
     7.8488   7.9078   7.9635   8.0638   8.1710   8.2124   8.2394   8.2776
     8.3645   8.4289   8.5198   8.5891   8.7062   8.7469   8.8805   8.9664
     9.0692   9.1369   9.2264   9.3127   9.4515   9.4863   9.5013   9.6462
     9.7244   9.7341   9.9195  10.0228  10.0653  10.1053  10.4820  10.8733
    10.9766  11.1663  11.4919  11.7561  12.2618  13.8729  14.8068  15.1071
    18.0291  18.2084  18.2495  18.3019  18.3772  18.7800  18.9255  19.1049
    19.1484  19.2754  19.3654  19.4759  19.7048  19.8490  19.8766  20.0253
    20.2291  20.3533  20.4150  20.5015  20.5640  20.5730  20.6334  20.6740

     occupation numbers 
     1.0000   1.0000   1.0000   1.0000   1.0000   1.0000   1.0000   1.0000
     1.0000   1.0000   1.0000   1.0000   1.0000   1.0000   1.0000   1.0000
     1.0000   1.0000   1.0000   1.0000   1.0000   1.0000   1.0000   1.0000
     1.0000   1.0000   1.0000   1.0000   1.0000   1.0000   1.0000   1.0000
     1.0000   1.0000   1.0000   1.0000   1.0000   1.0000   1.0000   1.0000
     1.0000   1.0000   1.0000   1.0000   1.0000   1.0000   1.0000   1.0000
     1.0000   1.0000   1.0000   1.0000   1.0000   1.0000   1.0000   1.0000
     1.0000   1.0000   1.0000   1.0000   1.0000   1.0000   1.0000   1.0000
     1.0000   1.0000   1.0000   1.0000   1.0000   1.0000   1.0000   1.0000
     1.0000   1.0000   1.0000   1.0000   1.0000   1.0000   1.0000   1.0000
     1.0000   1.0000   1.0000   1.0000   1.0000   1.0000   1.0000   1.0000
     1.0000   1.0000   1.0000   1.0000   1.0000   1.0000   1.0000   1.0000
     1.0000   1.0000   1.0000   1.0000   1.0000   1.0000   1.0000   1.0000
     1.0000   1.0000   1.0000   1.0000   1.0000   1.0000   1.0000   1.0000
     1.0000   1.0000   1.0000   1.0000   1.0000   1.0000   1.0000   1.0000
     1.0000   1.0000   1.0000   1.0000   1.0000   1.0000   1.0000   0.4999
     0.0000   0.0000   0.0000   0.0000   0.0000   0.0000   0.0000   0.0000
     0.0000   0.0000   0.0000   0.0000   0.0000   0.0000   0.0000   0.0000
     0.0000   0.0000   0.0000   0.0000   0.0000   0.0000   0.0000   0.0000

          k = 0.3333-0.3333 0.3333 ( 24303 PWs)   bands (ev):

    -7.8564  -7.3244  -6.9958  -6.8312  -6.4650  -6.2385  -5.9925  -5.4901
    -4.4572  -4.0471  -3.9377  -3.7230  -3.4319  -3.3578  -3.3190  -3.2466
    -3.0841  -2.8901  -2.6932  -2.4337  -2.0706  -1.8943  -1.8565  -1.7199
    -1.4855  -1.4714  -1.4500  -1.3685  -1.3635  -1.2562  -1.1994  -0.0558
     0.7589   0.8477   0.9485   0.9974   1.0659   1.4231   1.7533   1.7745
     1.8505   1.9477   2.0294   2.2285   2.5853   2.6108   2.6787   2.6989
     2.7076   2.7755   2.9185   3.1707   3.5071   4.0053   4.2404   4.2909
     4.8292   4.8354   4.8589   5.0048   5.0323   5.0526   5.1845   5.2416
     5.2667   5.4255   5.4314   5.5027   5.6845   5.7766   5.8109   6.4773
     6.7311   6.7737   6.9188   6.9215   6.9672   7.0453   7.0621   7.0840
     7.1546   7.1554   7.2114   7.2531   7.2541   7.3210   7.3389   7.3505
     7.3618   7.4681   7.7186   7.7376   7.8349   7.9129   7.9410   7.9512
     8.1318   8.1481   8.2502   8.2814   8.3333   8.4004   8.4053   8.4675
     8.6971   8.7121   8.9497   8.9981   9.1123   9.5358   9.5687   9.7068
     9.8524  10.4051  10.5013  10.5070  10.5566  10.9254  10.9417  11.2032
    11.2256  11.2703  11.4732  11.7116  11.7452  13.8945  14.8790  15.1931
    18.0895  18.2647  18.3389  18.5310  18.6493  18.7241  19.1961  19.3815
    19.4447  19.5034  19.5303  19.5501  19.6013  19.6287  19.6597  19.7110
    19.7459  19.7925  19.9047  19.9236  19.9730  19.9866  20.0446  20.1486

     occupation numbers 
     1.0000   1.0000   1.0000   1.0000   1.0000   1.0000   1.0000   1.0000
     1.0000   1.0000   1.0000   1.0000   1.0000   1.0000   1.0000   1.0000
     1.0000   1.0000   1.0000   1.0000   1.0000   1.0000   1.0000   1.0000
     1.0000   1.0000   1.0000   1.0000   1.0000   1.0000   1.0000   1.0000
     1.0000   1.0000   1.0000   1.0000   1.0000   1.0000   1.0000   1.0000
     1.0000   1.0000   1.0000   1.0000   1.0000   1.0000   1.0000   1.0000
     1.0000   1.0000   1.0000   1.0000   1.0000   1.0000   1.0000   1.0000
     1.0000   1.0000   1.0000   1.0000   1.0000   1.0000   1.0000   1.0000
     1.0000   1.0000   1.0000   1.0000   1.0000   1.0000   1.0000   1.0000
     1.0000   1.0000   1.0000   1.0000   1.0000   1.0000   1.0000   1.0000
     1.0000   1.0000   1.0000   1.0000   1.0000   1.0000   1.0000   1.0000
     1.0000   1.0000   1.0000   1.0000   1.0000   1.0000   1.0000   1.0000
     1.0000   1.0000   1.0000   1.0000   1.0000   1.0000   1.0000   1.0000
     1.0000   1.0000   1.0000   1.0000   1.0000   1.0000   1.0000   1.0000
     1.0000   1.0000   1.0000   1.0000   1.0000   1.0000   1.0000   1.0000
     1.0000   1.0000   1.0000   1.0000   1.0000   1.0000   1.0000   0.0000
     0.0000   0.0000   0.0000   0.0000   0.0000   0.0000   0.0000   0.0000
     0.0000   0.0000   0.0000   0.0000   0.0000   0.0000   0.0000   0.0000
     0.0000   0.0000   0.0000   0.0000   0.0000   0.0000   0.0000   0.0000

 ------ SPIN DOWN ----------


          k = 0.0000 0.0000 0.0000 ( 24207 PWs)   bands (ev):

    -8.5500  -6.8775  -6.2942  -6.2942  -6.1842  -6.1842  -5.8848  -4.9049
    -4.1502  -4.1502  -4.1193  -4.1193  -4.0479  -4.0312  -4.0312  -3.9514
    -3.8828  -3.8828  -3.3697  -2.9631  -2.6858  -2.6858  -2.1119  -0.3759
    -0.3759  -0.3585  -0.3294  -0.1108   0.1589   0.1589   0.2683   0.2683
     0.3415   0.5882   0.8138   0.8138   0.9374   0.9516   0.9516   1.0073
     1.0157   1.0157   1.3217   1.3217   3.0674   3.9371   3.9371   4.0398
     4.1704   4.1704   4.1726   4.2285   4.2285   4.2320   4.3900   4.3900
     4.4541   4.4541   4.5309   4.6283   4.6285   4.6285   4.6288   4.7404
     4.7404   4.8648   4.9260   4.9260   5.0289   5.1776   5.1776   5.2644
     5.3139   5.3139   5.3459   5.3743   5.3743   6.0033   6.0033   6.0437
     6.6080   6.6080   6.6775   6.9805   6.9863   6.9863   7.5286   8.3135
     8.3135   8.3682   8.4197   8.4197   8.6173   8.6173   8.7372   8.7674
     8.7674   8.7862   8.8348   8.8348   8.8369   9.2248   9.2328   9.2328
     9.6491   9.6491   9.8278   9.8465   9.8721   9.8746   9.8746   9.9193
     9.9193   9.9442   9.9557   9.9557  10.0384  10.0384  10.2363  10.2574
    10.2574  11.0842  12.3168  12.4192  12.4192  14.0321  15.2672  15.2672
    17.2807  17.3242  17.3242  17.4607  17.5312  17.5313  17.7883  17.8844
    17.8844  17.9925  17.9925  18.3463  18.9009  18.9009  18.9384  20.5984
    20.7506  20.7506  20.8002  20.8755  20.8755  20.9611  20.9668  20.9668

     occupation numbers 
     1.0000   1.0000   1.0000   1.0000   1.0000   1.0000   1.0000   1.0000
     1.0000   1.0000   1.0000   1.0000   1.0000   1.0000   1.0000   1.0000
     1.0000   1.0000   1.0000   1.0000   1.0000   1.0000   1.0000   1.0000
     1.0000   1.0000   1.0000   1.0000   1.0000   1.0000   1.0000   1.0000
     1.0000   1.0000   1.0000   1.0000   1.0000   1.0000   1.0000   1.0000
     1.0000   1.0000   1.0000   1.0000   1.0000   1.0000   1.0000   1.0000
     1.0000   1.0000   1.0000   1.0000   1.0000   1.0000   1.0000   1.0000
     1.0000   1.0000   1.0000   1.0000   1.0000   1.0000   1.0000   1.0000
     1.0000   1.0000   1.0000   1.0000   1.0000   1.0000   1.0000   1.0000
     1.0000   1.0000   1.0000   1.0000   1.0000   1.0000   1.0000   1.0000
     1.0000   1.0000   1.0000   1.0000   1.0000   1.0000   1.0000   1.0000
     1.0000   1.0000   1.0000   1.0000   1.0000   1.0000   1.0000   1.0000
     1.0000   1.0000   1.0000   1.0000   1.0000   1.0000   1.0000   1.0000
     1.0000   1.0000   1.0000   1.0000   1.0000   1.0000   1.0000   1.0000
     1.0000   1.0000   1.0000   1.0000   1.0000   1.0000   1.0000   1.0000
     1.0000   1.0000   1.0000   1.0000   1.0000   1.0000   0.0000   0.0000
     0.0000   0.0000   0.0000   0.0000   0.0000   0.0000   0.0000   0.0000
     0.0000   0.0000   0.0000   0.0000   0.0000   0.0000   0.0000   0.0000
     0.0000   0.0000   0.0000   0.0000   0.0000   0.0000   0.0000   0.0000

          k = 0.0000 0.0000 0.3333 ( 24280 PWs)   bands (ev):

    -8.3146  -7.5498  -6.5074  -6.0486  -5.9425  -5.8270  -5.4877  -5.3087
    -5.1933  -4.9872  -4.5120  -4.1145  -3.8345  -3.7963  -3.6971  -3.4336
    -3.2287  -3.1568  -2.9381  -2.5985  -2.5203  -2.4031  -2.3237  -1.7728
    -0.8273  -0.7068  -0.5995  -0.3499   0.1845   0.2833   0.3385   0.3834
     0.4662   0.5472   0.5660   0.6545   0.7232   0.7487   0.9657   1.4730
     1.9938   2.0062   2.1364   2.2342   2.4024   2.4764   2.4782   2.7366
     2.9531   2.9950   3.1544   3.1668   3.8943   3.9792   4.0435   4.0566
     4.2801   4.3705   4.5136   4.5494   5.0920   5.1111   5.1426   5.1942
     5.1942   5.6035   5.6126   5.7124   5.7241   6.0668   6.1083   6.1677
     6.1867   6.3194   6.4021   6.4476   6.4873   6.6084   6.6226   6.7403
     6.7516   6.8787   6.8928   6.9267   7.1302   7.1573   7.1805   7.2474
     7.4216   7.4635   7.6691   7.7709   7.8301   8.0393   8.1509   8.2663
     8.2884   8.4306   8.6801   8.6984   8.7605   9.0993   9.1778   9.3556
     9.3712   9.6316   9.6483   9.7092   9.7560   9.9076   9.9304   9.9346
     9.9628   9.9950  10.0990  10.1214  10.1480  10.2644  10.2708  10.3610
    10.3666  11.3738  11.6953  11.7233  12.0466  13.8037  14.9627  15.1404
    17.1929  17.2894  17.9418  18.3033  18.3480  18.4786  18.5096  18.6115
    18.8208  18.8333  18.9927  19.0801  19.2053  19.8249  19.8595  20.4682
    20.6597  20.6825  20.7806  20.7838  20.8269  20.8478  20.9056  20.9450

     occupation numbers 
     1.0000   1.0000   1.0000   1.0000   1.0000   1.0000   1.0000   1.0000
     1.0000   1.0000   1.0000   1.0000   1.0000   1.0000   1.0000   1.0000
     1.0000   1.0000   1.0000   1.0000   1.0000   1.0000   1.0000   1.0000
     1.0000   1.0000   1.0000   1.0000   1.0000   1.0000   1.0000   1.0000
     1.0000   1.0000   1.0000   1.0000   1.0000   1.0000   1.0000   1.0000
     1.0000   1.0000   1.0000   1.0000   1.0000   1.0000   1.0000   1.0000
     1.0000   1.0000   1.0000   1.0000   1.0000   1.0000   1.0000   1.0000
     1.0000   1.0000   1.0000   1.0000   1.0000   1.0000   1.0000   1.0000
     1.0000   1.0000   1.0000   1.0000   1.0000   1.0000   1.0000   1.0000
     1.0000   1.0000   1.0000   1.0000   1.0000   1.0000   1.0000   1.0000
     1.0000   1.0000   1.0000   1.0000   1.0000   1.0000   1.0000   1.0000
     1.0000   1.0000   1.0000   1.0000   1.0000   1.0000   1.0000   1.0000
     1.0000   1.0000   1.0000   1.0000   1.0000   1.0000   1.0000   1.0000
     1.0000   1.0000   1.0000   1.0000   1.0000   1.0000   1.0000   1.0000
     1.0000   1.0000   1.0000   1.0000   1.0000   1.0000   1.0000   1.0000
     1.0000   1.0000   1.0000   1.0000   1.0000   1.0000   1.0000   0.0001
     0.0000   0.0000   0.0000   0.0000   0.0000   0.0000   0.0000   0.0000
     0.0000   0.0000   0.0000   0.0000   0.0000   0.0000   0.0000   0.0000
     0.0000   0.0000   0.0000   0.0000   0.0000   0.0000   0.0000   0.0000

          k = 0.0000 0.3333 0.3333 ( 24236 PWs)   bands (ev):

    -8.0908  -7.3535  -7.2444  -6.5617  -5.9455  -5.6852  -5.3143  -5.0340
    -5.0028  -4.8480  -4.4948  -4.2747  -4.2352  -3.9470  -3.5380  -3.5128
    -2.7596  -2.3881  -2.3311  -2.3261  -2.2128  -2.1916  -2.0544  -1.9012
    -1.5125  -1.3141  -1.1015  -0.9280  -0.5507  -0.0111   0.0622   0.1128
     0.1780   0.4718   0.6893   1.1743   1.1877   1.2910   1.3666   1.4047
     1.4501   1.4598   1.9387   2.0663   2.1294   2.4059   2.7291   2.8278
     2.9598   3.5213   3.6529   3.7033   3.7830   3.8089   3.9698   4.0233
     4.0963   4.5533   4.6745   4.8270   5.0108   5.0577   5.1400   5.2993
     5.3626   5.5827   5.6451   5.6844   5.7472   5.9888   6.0248   6.0764
     6.1314   6.2219   6.2593   6.4981   6.5318   6.5957   6.6424   6.8549
     6.8981   6.9347   7.0247   7.0371   7.2331   7.2871   7.4993   7.7108
     7.9242   7.9437   8.0751   8.0859   8.1113   8.2103   8.2562   8.3103
     8.3374   8.3976   8.5386   8.6140   8.7036   8.7096   8.8397   8.8786
     9.0491   9.1858   9.2351   9.3066   9.4570   9.4801   9.5730   9.6213
     9.6935   9.7976   9.8968  10.0374  10.0446  10.1032  10.4442  10.7576
    11.0217  11.1979  11.5460  11.8711  12.2145  13.6251  14.9024  15.2008
    18.0607  18.1979  18.2404  18.3000  18.3479  18.8211  18.8546  18.9665
    19.1780  19.2307  19.4434  19.4679  19.6959  19.7925  19.9759  20.0151
    20.1967  20.4602  20.4772  20.5063  20.5650  20.5833  20.6106  20.6464

     occupation numbers 
     1.0000   1.0000   1.0000   1.0000   1.0000   1.0000   1.0000   1.0000
     1.0000   1.0000   1.0000   1.0000   1.0000   1.0000   1.0000   1.0000
     1.0000   1.0000   1.0000   1.0000   1.0000   1.0000   1.0000   1.0000
     1.0000   1.0000   1.0000   1.0000   1.0000   1.0000   1.0000   1.0000
     1.0000   1.0000   1.0000   1.0000   1.0000   1.0000   1.0000   1.0000
     1.0000   1.0000   1.0000   1.0000   1.0000   1.0000   1.0000   1.0000
     1.0000   1.0000   1.0000   1.0000   1.0000   1.0000   1.0000   1.0000
     1.0000   1.0000   1.0000   1.0000   1.0000   1.0000   1.0000   1.0000
     1.0000   1.0000   1.0000   1.0000   1.0000   1.0000   1.0000   1.0000
     1.0000   1.0000   1.0000   1.0000   1.0000   1.0000   1.0000   1.0000
     1.0000   1.0000   1.0000   1.0000   1.0000   1.0000   1.0000   1.0000
     1.0000   1.0000   1.0000   1.0000   1.0000   1.0000   1.0000   1.0000
     1.0000   1.0000   1.0000   1.0000   1.0000   1.0000   1.0000   1.0000
     1.0000   1.0000   1.0000   1.0000   1.0000   1.0000   1.0000   1.0000
     1.0000   1.0000   1.0000   1.0000   1.0000   1.0000   1.0000   1.0000
     1.0000   1.0000   1.0000   1.0000   1.0000   1.0000   1.0000   0.0000
     0.0000   0.0000   0.0000   0.0000   0.0000   0.0000   0.0000   0.0000
     0.0000   0.0000   0.0000   0.0000   0.0000   0.0000   0.0000   0.0000
     0.0000   0.0000   0.0000   0.0000   0.0000   0.0000   0.0000   0.0000

          k = 0.3333 0.3333 0.3333 ( 24303 PWs)   bands (ev):

    -7.8825  -7.1730  -6.9957  -6.9957  -6.2712  -6.2392  -6.2392  -5.4608
    -4.1852  -4.0478  -4.0478  -3.5156  -3.3974  -3.3974  -3.3446  -3.3047
    -3.3047  -2.9136  -2.6765  -2.6765  -1.9531  -1.9077  -1.9077  -1.5439
    -1.4598  -1.4598  -1.4110  -1.4110  -1.3822  -1.2306  -1.2306   0.0582
     0.8488   0.8488   0.9889   0.9889   0.9950   1.3057   1.8196   1.8196
     1.8529   1.9202   2.0102   2.0102   2.5908   2.5908   2.6001   2.6820
     2.7131   2.7131   3.1465   3.1465   3.5328   4.0633   4.2916   4.2916
     4.8191   4.9268   4.9389   4.9389   5.0811   5.0811   5.1452   5.3132
     5.3132   5.4104   5.4951   5.4951   5.5994   5.5994   5.6543   6.3831
     6.7322   6.7322   6.9218   6.9639   6.9639   6.9980   7.0643   7.0643
     7.1863   7.1863   7.2276   7.2557   7.2557   7.2682   7.3430   7.3519
     7.3519   7.4878   7.7341   7.7341   7.9229   7.9229   7.9550   7.9738
     8.1759   8.1759   8.2768   8.3035   8.3035   8.4107   8.4703   8.4703
     8.6740   8.6740   8.8709   9.0352   9.1083   9.5257   9.5257   9.7901
     9.7901  10.4754  10.4876  10.4876  10.6003  10.9344  10.9344  11.2577
    11.2629  11.2629  11.5278  11.6650  11.6650  13.5239  15.1938  15.1938
    18.1359  18.2451  18.2451  18.4524  18.6502  18.6502  19.2015  19.3995
    19.3995  19.5350  19.5350  19.5789  19.6093  19.6093  19.6422  19.7454
    19.7455  19.8679  19.9216  19.9217  20.0016  20.0017  20.0187  20.1352

     occupation numbers 
     1.0000   1.0000   1.0000   1.0000   1.0000   1.0000   1.0000   1.0000
     1.0000   1.0000   1.0000   1.0000   1.0000   1.0000   1.0000   1.0000
     1.0000   1.0000   1.0000   1.0000   1.0000   1.0000   1.0000   1.0000
     1.0000   1.0000   1.0000   1.0000   1.0000   1.0000   1.0000   1.0000
     1.0000   1.0000   1.0000   1.0000   1.0000   1.0000   1.0000   1.0000
     1.0000   1.0000   1.0000   1.0000   1.0000   1.0000   1.0000   1.0000
     1.0000   1.0000   1.0000   1.0000   1.0000   1.0000   1.0000   1.0000
     1.0000   1.0000   1.0000   1.0000   1.0000   1.0000   1.0000   1.0000
     1.0000   1.0000   1.0000   1.0000   1.0000   1.0000   1.0000   1.0000
     1.0000   1.0000   1.0000   1.0000   1.0000   1.0000   1.0000   1.0000
     1.0000   1.0000   1.0000   1.0000   1.0000   1.0000   1.0000   1.0000
     1.0000   1.0000   1.0000   1.0000   1.0000   1.0000   1.0000   1.0000
     1.0000   1.0000   1.0000   1.0000   1.0000   1.0000   1.0000   1.0000
     1.0000   1.0000   1.0000   1.0000   1.0000   1.0000   1.0000   1.0000
     1.0000   1.0000   1.0000   1.0000   1.0000   1.0000   1.0000   1.0000
     1.0000   1.0000   1.0000   1.0000   1.0000   1.0000   0.0000   0.0000
     0.0000   0.0000   0.0000   0.0000   0.0000   0.0000   0.0000   0.0000
     0.0000   0.0000   0.0000   0.0000   0.0000   0.0000   0.0000   0.0000
     0.0000   0.0000   0.0000   0.0000   0.0000   0.0000   0.0000   0.0000

          k =-0.3333 0.0000 0.3333 ( 24236 PWs)   bands (ev):

    -8.0776  -7.4788  -7.1132  -6.5517  -5.9726  -5.6891  -5.3710  -5.0339
    -4.9421  -4.7877  -4.5218  -4.2885  -4.2305  -4.0594  -3.6023  -3.3371
    -2.7732  -2.4065  -2.3666  -2.3100  -2.1977  -2.1628  -2.1164  -1.6592
    -1.6509  -1.3205  -1.1273  -0.9771  -0.6183   0.0082   0.0781   0.1216
     0.2474   0.4723   0.8660   1.0614   1.2142   1.2348   1.2404   1.3984
     1.4690   1.5760   1.8454   1.9121   2.1297   2.5719   2.6814   2.8552
     2.9415   3.5165   3.6578   3.7030   3.7818   3.8806   4.0238   4.1073
     4.1782   4.3884   4.6343   4.8127   4.9651   5.0262   5.1857   5.2410
     5.4009   5.5586   5.6460   5.6694   5.7859   6.0377   6.0772   6.1222
     6.1641   6.2119   6.2563   6.4425   6.4786   6.6041   6.6396   6.8262
     6.8902   6.9514   6.9991   7.0892   7.2146   7.3974   7.5022   7.6787
     7.8488   7.9078   7.9635   8.0637   8.1709   8.2124   8.2394   8.2776
     8.3645   8.4289   8.5198   8.5891   8.7062   8.7469   8.8805   8.9663
     9.0692   9.1369   9.2264   9.3127   9.4515   9.4863   9.5013   9.6462
     9.7245   9.7341   9.9195  10.0228  10.0653  10.1054  10.4820  10.8733
    10.9768  11.1664  11.4919  11.7566  12.2618  13.8735  14.8067  15.1070
    18.0292  18.2084  18.2495  18.3018  18.3772  18.7801  18.9255  19.1049
    19.1485  19.2755  19.3654  19.4759  19.7047  19.8490  19.8766  20.0253
    20.2293  20.3534  20.4151  20.5016  20.5641  20.5731  20.6334  20.6739

     occupation numbers 
     1.0000   1.0000   1.0000   1.0000   1.0000   1.0000   1.0000   1.0000
     1.0000   1.0000   1.0000   1.0000   1.0000   1.0000   1.0000   1.0000
     1.0000   1.0000   1.0000   1.0000   1.0000   1.0000   1.0000   1.0000
     1.0000   1.0000   1.0000   1.0000   1.0000   1.0000   1.0000   1.0000
     1.0000   1.0000   1.0000   1.0000   1.0000   1.0000   1.0000   1.0000
     1.0000   1.0000   1.0000   1.0000   1.0000   1.0000   1.0000   1.0000
     1.0000   1.0000   1.0000   1.0000   1.0000   1.0000   1.0000   1.0000
     1.0000   1.0000   1.0000   1.0000   1.0000   1.0000   1.0000   1.0000
     1.0000   1.0000   1.0000   1.0000   1.0000   1.0000   1.0000   1.0000
     1.0000   1.0000   1.0000   1.0000   1.0000   1.0000   1.0000   1.0000
     1.0000   1.0000   1.0000   1.0000   1.0000   1.0000   1.0000   1.0000
     1.0000   1.0000   1.0000   1.0000   1.0000   1.0000   1.0000   1.0000
     1.0000   1.0000   1.0000   1.0000   1.0000   1.0000   1.0000   1.0000
     1.0000   1.0000   1.0000   1.0000   1.0000   1.0000   1.0000   1.0000
     1.0000   1.0000   1.0000   1.0000   1.0000   1.0000   1.0000   1.0000
     1.0000   1.0000   1.0000   1.0000   1.0000   1.0000   1.0000   0.4999
     0.0000   0.0000   0.0000   0.0000   0.0000   0.0000   0.0000   0.0000
     0.0000   0.0000   0.0000   0.0000   0.0000   0.0000   0.0000   0.0000
     0.0000   0.0000   0.0000   0.0000   0.0000   0.0000   0.0000   0.0000

          k = 0.3333-0.3333 0.3333 ( 24303 PWs)   bands (ev):

    -7.8564  -7.3242  -6.9960  -6.8313  -6.4650  -6.2387  -5.9926  -5.4901
    -4.4570  -4.0472  -3.9377  -3.7230  -3.4321  -3.3579  -3.3191  -3.2467
    -3.0842  -2.8901  -2.6933  -2.4337  -2.0706  -1.8944  -1.8566  -1.7200
    -1.4857  -1.4715  -1.4501  -1.3686  -1.3636  -1.2563  -1.1995  -0.0557
     0.7588   0.8476   0.9485   0.9973   1.0658   1.4230   1.7532   1.7744
     1.8505   1.9476   2.0293   2.2284   2.5852   2.6107   2.6786   2.6988
     2.7075   2.7755   2.9185   3.1706   3.5070   4.0052   4.2403   4.2909
     4.8292   4.8354   4.8589   5.0047   5.0322   5.0525   5.1845   5.2416
     5.2667   5.4255   5.4313   5.5026   5.6844   5.7765   5.8108   6.4772
     6.7313   6.7738   6.9188   6.9215   6.9672   7.0453   7.0621   7.0839
     7.1546   7.1553   7.2114   7.2530   7.2541   7.3210   7.3389   7.3504
     7.3618   7.4681   7.7186   7.7376   7.8349   7.9128   7.9410   7.9512
     8.1318   8.1481   8.2502   8.2814   8.3333   8.4004   8.4052   8.4675
     8.6971   8.7121   8.9496   8.9981   9.1123   9.5358   9.5687   9.7069
     9.8524  10.4052  10.5013  10.5071  10.5566  10.9255  10.9419  11.2033
    11.2256  11.2704  11.4735  11.7116  11.7451  13.8952  14.8789  15.1930
    18.0895  18.2646  18.3389  18.5311  18.6493  18.7240  19.1962  19.3817
    19.4448  19.5034  19.5302  19.5501  19.6012  19.6287  19.6597  19.7110
    19.7459  19.7926  19.9047  19.9237  19.9730  19.9866  20.0446  20.1486

     occupation numbers 
     1.0000   1.0000   1.0000   1.0000   1.0000   1.0000   1.0000   1.0000
     1.0000   1.0000   1.0000   1.0000   1.0000   1.0000   1.0000   1.0000
     1.0000   1.0000   1.0000   1.0000   1.0000   1.0000   1.0000   1.0000
     1.0000   1.0000   1.0000   1.0000   1.0000   1.0000   1.0000   1.0000
     1.0000   1.0000   1.0000   1.0000   1.0000   1.0000   1.0000   1.0000
     1.0000   1.0000   1.0000   1.0000   1.0000   1.0000   1.0000   1.0000
     1.0000   1.0000   1.0000   1.0000   1.0000   1.0000   1.0000   1.0000
     1.0000   1.0000   1.0000   1.0000   1.0000   1.0000   1.0000   1.0000
     1.0000   1.0000   1.0000   1.0000   1.0000   1.0000   1.0000   1.0000
     1.0000   1.0000   1.0000   1.0000   1.0000   1.0000   1.0000   1.0000
     1.0000   1.0000   1.0000   1.0000   1.0000   1.0000   1.0000   1.0000
     1.0000   1.0000   1.0000   1.0000   1.0000   1.0000   1.0000   1.0000
     1.0000   1.0000   1.0000   1.0000   1.0000   1.0000   1.0000   1.0000
     1.0000   1.0000   1.0000   1.0000   1.0000   1.0000   1.0000   1.0000
     1.0000   1.0000   1.0000   1.0000   1.0000   1.0000   1.0000   1.0000
     1.0000   1.0000   1.0000   1.0000   1.0000   1.0000   1.0000   0.0000
     0.0000   0.0000   0.0000   0.0000   0.0000   0.0000   0.0000   0.0000
     0.0000   0.0000   0.0000   0.0000   0.0000   0.0000   0.0000   0.0000
     0.0000   0.0000   0.0000   0.0000   0.0000   0.0000   0.0000   0.0000

     the spin up/dw Fermi energies are    15.1090   15.1089 ev

!    total energy              =    -724.77009716 Ry
     Harris-Foulkes estimate   =    -724.77009676 Ry
     estimated scf accuracy    <       0.00000049 Ry

     The total energy is the sum of the following terms:

     one-electron contribution =     232.10319103 Ry
     hartree contribution      =      69.49036533 Ry
     xc contribution           =    -226.37321500 Ry
     ewald contribution        =    -799.99036553 Ry
     smearing contrib. (-TS)   =      -0.00007299 Ry

     total magnetization       =    -0.00 Bohr mag/cell
     absolute magnetization    =     0.00 Bohr mag/cell

     convergence has been achieved in   9 iterations

     Writing output data file di.save
 
     init_run     :      1.33s CPU      1.72s WALL (       1 calls)
     electrons    :     25.79s CPU     26.21s WALL (       1 calls)

     Called by init_run:
     wfcinit      :      0.76s CPU      0.84s WALL (       1 calls)
     wfcinit:atom :      0.00s CPU      0.01s WALL (       2 calls)
     wfcinit:wfcr :      0.72s CPU      0.78s WALL (       2 calls)
     potinit      :      0.09s CPU      0.10s WALL (       1 calls)

     Called by electrons:
     c_bands      :     24.12s CPU     24.50s WALL (       9 calls)
     sum_band     :      1.14s CPU      1.16s WALL (       9 calls)
     v_of_rho     :      0.38s CPU      0.38s WALL (      10 calls)
     v_h          :      0.01s CPU      0.01s WALL (      10 calls)
     v_xc         :      0.37s CPU      0.37s WALL (      10 calls)
     mix_rho      :      0.06s CPU      0.06s WALL (       9 calls)

     Called by c_bands:
     init_us_2    :      0.17s CPU      0.17s WALL (      38 calls)
     cegterg      :     21.35s CPU     21.70s WALL (      18 calls)

     Called by sum_band:

     Called by *egterg:
     h_psi        :      8.65s CPU      8.77s WALL (     125 calls)
     g_psi        :      0.05s CPU      0.05s WALL (     105 calls)
     cdiaghg      :      8.78s CPU      8.82s WALL (     123 calls)
     cegterg:over :      1.77s CPU      1.79s WALL (     105 calls)
     cegterg:upda :      1.24s CPU      1.25s WALL (     105 calls)
     cegterg:last :      0.45s CPU      0.46s WALL (      18 calls)

     Called by h_psi:
     h_psi:pot    :      8.55s CPU      8.67s WALL (     125 calls)
     h_psi:calbec :      1.93s CPU      1.95s WALL (     125 calls)
     vloc_psi     :      4.75s CPU      4.82s WALL (     125 calls)
     add_vuspsi   :      1.87s CPU      1.89s WALL (     125 calls)

     General routines
     calbec       :      1.93s CPU      1.95s WALL (     125 calls)
     fft          :      0.12s CPU      0.33s WALL (     207 calls)
     fftw         :      5.08s CPU      5.07s WALL (   18360 calls)
 
     Parallel routines
     fft_scatter  :      1.70s CPU      1.64s WALL (   18567 calls)
 
     PWSCF        :    29.95s CPU        33.29s WALL

 
   This run was terminated on:  10:28:25  12May2020            

=------------------------------------------------------------------------------=
   JOB DONE.
=------------------------------------------------------------------------------=
