
     Program PWSCF v.6.1 (svn rev. 13369) starts on  1Jun2021 at 13:37:32 

     This program is part of the open-source Quantum ESPRESSO suite
     for quantum simulation of materials; please cite
         "P. Giannozzi et al., J. Phys.:Condens. Matter 21 395502 (2009);
          URL http://www.quantum-espresso.org", 
     in publications or presentations arising from this work. More details at
     http://www.quantum-espresso.org/quote

     Parallel version (MPI), running on    32 processors
     K-points division:     npool     =       2
     R & G space division:  proc/nbgrp/npool/nimage =      16
     Reading input from scf.in
Warning: card &IONS ignored
Warning: card / ignored

     Current dimensions of program PWSCF are:
     Max number of different atomic species (ntypx) = 10
     Max number of k-points (npk) =  40000
     Max angular momentum in pseudopotentials (lmaxx) =  3

     Subspace diagonalization in iterative solution of the eigenvalue problem:
     one sub-group per band group will be used
     scalapack distributed-memory algorithm (size of sub-group:  4*  4 procs)

 
     Parallelization info
     --------------------
     sticks:   dense  smooth     PW     G-vecs:    dense   smooth      PW
     Min         766     766    191                91100    91100   11396
     Max         767     767    193                91105    91105   11399
     Sum       12259   12259   3067              1457633  1457633  182351
 


     bravais-lattice index     =            0
     lattice parameter (alat)  =      28.4285  a.u.
     unit-cell volume          =   26452.5957 (a.u.)^3
     number of atoms/cell      =           71
     number of atomic types    =            2
     number of electrons       =       285.00
     number of Kohn-Sham states=          151
     kinetic-energy cutoff     =      55.0000  Ry
     charge density cutoff     =     220.0000  Ry
     convergence threshold     =      1.0E-06
     mixing beta               =       0.7000
     number of iterations used =            8  plain     mixing
     Exchange-correlation      = PBE ( 1  4  3  4 0 0)

     celldm(1)=  28.428530  celldm(2)=   0.000000  celldm(3)=   0.000000
     celldm(4)=   0.000000  celldm(5)=   0.000000  celldm(6)=   0.000000

     crystal axes: (cart. coord. in units of alat)
               a(1) = (   1.000000   0.000000   0.000000 )  
               a(2) = (  -0.500000   0.866025   0.000000 )  
               a(3) = (   0.000000   0.000000   1.329458 )  

     reciprocal axes: (cart. coord. in units 2 pi/alat)
               b(1) = (  1.000000  0.577350  0.000000 )  
               b(2) = (  0.000000  1.154701  0.000000 )  
               b(3) = (  0.000000  0.000000  0.752187 )  


     PseudoPot. # 1 for B  read from file:
     /export/data/share/tjsmart/Pseudo/B_ONCV_PBE-1.0.upf
     MD5 check sum: a9fd2462c33df863cd3ce8a66ea40380
     Pseudo is Norm-conserving, Zval =  3.0
     Generated using ONCVPSP code by D. R. Hamann
     Using radial grid of 1534 points,  4 beta functions with: 
                l(1) =   0
                l(2) =   0
                l(3) =   1
                l(4) =   1

     PseudoPot. # 2 for N  read from file:
     /export/data/share/tjsmart/Pseudo/N_ONCV_PBE-1.0.upf
     MD5 check sum: 09890da6b2972017450f7114a6086fad
     Pseudo is Norm-conserving, Zval =  5.0
     Generated using ONCVPSP code by D. R. Hamann
     Using radial grid of 1058 points,  4 beta functions with: 
                l(1) =   0
                l(2) =   0
                l(3) =   1
                l(4) =   1

     atomic species   valence    mass     pseudopotential
        B              3.00    10.81100     B ( 1.00)
        N              5.00    14.00670     N ( 1.00)

     Starting magnetic structure 
     atomic species   magnetization
        B            0.500
        N            0.500

      2 Sym. Ops. (no inversion) found



   Cartesian axes

     site n.     atom                  positions (alat units)
         1           B   tau(   1) = (   0.0847073   0.0482264   0.0000000  )
         2           B   tau(   2) = (   0.0018314   0.1915771   0.0000000  )
         3           B   tau(   3) = (  -0.0839658   0.3354584   0.0000000  )
         4           B   tau(   4) = (  -0.1697629   0.4797880   0.0000000  )
         5           B   tau(   5) = (  -0.2532158   0.6240213   0.0000000  )
         6           B   tau(   6) = (  -0.3348765   0.7684785   0.0000000  )
         7           B   tau(   7) = (   0.2504359   0.0503148   0.0000000  )
         8           B   tau(   8) = (   0.1709169   0.1984232   0.0000000  )
         9           B   tau(   9) = (   0.0818681   0.3376093   0.0000000  )
        10           B   tau(  10) = (  -0.0043368   0.4809797   0.0000000  )
        11           B   tau(  11) = (  -0.0868996   0.6253091   0.0000000  )
        12           B   tau(  12) = (  -0.1689230   0.7700140   0.0000000  )
        13           B   tau(  13) = (   0.4160179   0.0489500   0.0000000  )
        14           B   tau(  14) = (   0.3352003   0.1981062   0.0000000  )
        15           B   tau(  15) = (   0.2534867   0.3552495   0.0000000  )
        16           B   tau(  16) = (   0.1595733   0.4830029   0.0000000  )
        17           B   tau(  17) = (   0.0793714   0.6259681   0.0000000  )
        18           B   tau(  18) = (  -0.0023052   0.7698381   0.0000000  )
        19           B   tau(  19) = (   0.5842691   0.0455221   0.0000000  )
        20           B   tau(  20) = (   0.5052841   0.1888982   0.0000000  )
        21           N   tau(  21) = (   0.4233871   0.3307092   0.0000000  )
        22           B   tau(  22) = (   0.3171759   0.4656000   0.0000000  )
        23           B   tau(  23) = (   0.2466205   0.6230078   0.0000000  )
        24           B   tau(  24) = (   0.1656085   0.7677273   0.0000000  )
        25           B   tau(  25) = (   0.7516142   0.0443450   0.0000000  )
        26           B   tau(  26) = (   0.6704955   0.1880296   0.0000000  )
        27           B   tau(  27) = (   0.5871216   0.3306445   0.0000000  )
        28           B   tau(  28) = (   0.4941240   0.4733963   0.0000000  )
        29           B   tau(  29) = (   0.4117003   0.6155258   0.0000000  )
        30           B   tau(  30) = (   0.3330791   0.7653212   0.0000000  )
        31           B   tau(  31) = (   0.9179150   0.0451712   0.0000000  )
        32           B   tau(  32) = (   0.8355078   0.1896593   0.0000000  )
        33           B   tau(  33) = (   0.7508002   0.3339662   0.0000000  )
        34           B   tau(  34) = (   0.6637034   0.4779591   0.0000000  )
        35           B   tau(  35) = (   0.5797324   0.6206594   0.0000000  )
        36           B   tau(  36) = (   0.4986875   0.7652738   0.0000000  )
        37           N   tau(  37) = (   0.0009928   0.0949403   0.0000000  )
        38           N   tau(  38) = (  -0.0820779   0.2389557   0.0000000  )
        39           N   tau(  39) = (  -0.1675041   0.3833085   0.0000000  )
        40           N   tau(  40) = (  -0.2535683   0.5273982   0.0000000  )
        41           N   tau(  41) = (  -0.3368110   0.6711389   0.0000000  )
        42           N   tau(  42) = (  -0.4177427   0.8163962   0.0000000  )
        43           N   tau(  43) = (   0.1683477   0.0996788   0.0000000  )
        44           N   tau(  44) = (   0.0846946   0.2414851   0.0000000  )
        45           N   tau(  45) = (  -0.0022369   0.3847451   0.0000000  )
        46           N   tau(  46) = (  -0.0874174   0.5289611   0.0000000  )
        47           N   tau(  47) = (  -0.1700972   0.6733566   0.0000000  )
        48           N   tau(  48) = (  -0.2515609   0.8187883   0.0000000  )
        49           N   tau(  49) = (   0.3340775   0.1001896   0.0000000  )
        50           N   tau(  50) = (   0.2554651   0.2521381   0.0000000  )
        51           N   tau(  51) = (   0.1627218   0.3876642   0.0000000  )
        52           N   tau(  52) = (   0.0774476   0.5303892   0.0000000  )
        53           N   tau(  53) = (  -0.0037218   0.6739456   0.0000000  )
        54           N   tau(  54) = (  -0.0854052   0.8186142   0.0000000  )
        55           N   tau(  55) = (   0.5012264   0.0940768   0.0000000  )
        56           N   tau(  56) = (   0.4244320   0.2404013   0.0000000  )
        57           N   tau(  57) = (   0.2437078   0.5279915   0.0000000  )
        58           N   tau(  58) = (   0.1637606   0.6722570   0.0000000  )
        59           N   tau(  59) = (   0.0823643   0.8161395   0.0000000  )
        60           N   tau(  60) = (   0.6684822   0.0924592   0.0000000  )
        61           N   tau(  61) = (   0.5878107   0.2357218   0.0000000  )
        62           N   tau(  62) = (   0.5021107   0.3749619   0.0000000  )
        63           N   tau(  63) = (   0.4075093   0.5155038   0.0000000  )
        64           N   tau(  64) = (   0.3312554   0.6686370   0.0000000  )
        65           N   tau(  65) = (   0.2501576   0.8143523   0.0000000  )
        66           N   tau(  66) = (   0.8347458   0.0932207   0.0000000  )
        67           N   tau(  67) = (   0.7522619   0.2375830   0.0000000  )
        68           N   tau(  68) = (   0.6672010   0.3815804   0.0000000  )
        69           N   tau(  69) = (   0.5783474   0.5232758   0.0000000  )
        70           N   tau(  70) = (   0.4959510   0.6671010   0.0000000  )
        71           N   tau(  71) = (   0.4163256   0.8143538   0.0000000  )

     number of k points=     1
                       cart. coord. in units 2pi/alat
        k(    1) = (   0.0000000   0.0000000   0.0000000), wk =   1.0000000

     Dense  grid:  1457633 G-vectors     FFT dimensions: ( 135, 135, 180)

     Occupations read from input 

      Spin-up

        1.0000   1.0000   1.0000   1.0000   1.0000   1.0000   1.0000   1.0000
        1.0000   1.0000   1.0000   1.0000   1.0000   1.0000   1.0000   1.0000
        1.0000   1.0000   1.0000   1.0000   1.0000   1.0000   1.0000   1.0000
        1.0000   1.0000   1.0000   1.0000   1.0000   1.0000   1.0000   1.0000
        1.0000   1.0000   1.0000   1.0000   1.0000   1.0000   1.0000   1.0000
        1.0000   1.0000   1.0000   1.0000   1.0000   1.0000   1.0000   1.0000
        1.0000   1.0000   1.0000   1.0000   1.0000   1.0000   1.0000   1.0000
        1.0000   1.0000   1.0000   1.0000   1.0000   1.0000   1.0000   1.0000
        1.0000   1.0000   1.0000   1.0000   1.0000   1.0000   1.0000   1.0000
        1.0000   1.0000   1.0000   1.0000   1.0000   1.0000   1.0000   1.0000
        1.0000   1.0000   1.0000   1.0000   1.0000   1.0000   1.0000   1.0000
        1.0000   1.0000   1.0000   1.0000   1.0000   1.0000   1.0000   1.0000
        1.0000   1.0000   1.0000   1.0000   1.0000   1.0000   1.0000   1.0000
        1.0000   1.0000   1.0000   1.0000   1.0000   1.0000   1.0000   1.0000
        1.0000   1.0000   1.0000   1.0000   1.0000   1.0000   1.0000   1.0000
        1.0000   1.0000   1.0000   1.0000   1.0000   1.0000   1.0000   1.0000
        1.0000   1.0000   1.0000   1.0000   1.0000   1.0000   1.0000   1.0000
        1.0000   1.0000   1.0000   1.0000   1.0000   1.0000   0.0000   1.0000
        0.0000   0.0000   0.0000   0.0000   0.0000   0.0000   0.0000

      Spin-down

        1.0000   1.0000   1.0000   1.0000   1.0000   1.0000   1.0000   1.0000
        1.0000   1.0000   1.0000   1.0000   1.0000   1.0000   1.0000   1.0000
        1.0000   1.0000   1.0000   1.0000   1.0000   1.0000   1.0000   1.0000
        1.0000   1.0000   1.0000   1.0000   1.0000   1.0000   1.0000   1.0000
        1.0000   1.0000   1.0000   1.0000   1.0000   1.0000   1.0000   1.0000
        1.0000   1.0000   1.0000   1.0000   1.0000   1.0000   1.0000   1.0000
        1.0000   1.0000   1.0000   1.0000   1.0000   1.0000   1.0000   1.0000
        1.0000   1.0000   1.0000   1.0000   1.0000   1.0000   1.0000   1.0000
        1.0000   1.0000   1.0000   1.0000   1.0000   1.0000   1.0000   1.0000
        1.0000   1.0000   1.0000   1.0000   1.0000   1.0000   1.0000   1.0000
        1.0000   1.0000   1.0000   1.0000   1.0000   1.0000   1.0000   1.0000
        1.0000   1.0000   1.0000   1.0000   1.0000   1.0000   1.0000   1.0000
        1.0000   1.0000   1.0000   1.0000   1.0000   1.0000   1.0000   1.0000
        1.0000   1.0000   1.0000   1.0000   1.0000   1.0000   1.0000   1.0000
        1.0000   1.0000   1.0000   1.0000   1.0000   1.0000   1.0000   1.0000
        1.0000   1.0000   1.0000   1.0000   1.0000   1.0000   1.0000   1.0000
        1.0000   1.0000   1.0000   1.0000   1.0000   1.0000   1.0000   1.0000
        1.0000   1.0000   1.0000   1.0000   1.0000   1.0000   0.0000   0.0000
        0.0000   0.0000   0.0000   0.0000   0.0000   0.0000   0.0000

     Estimated max dynamical RAM per process >     320.92MB

     Estimated total allocated dynamical RAM >   10269.45MB
     Generating pointlists ...
     new r_m :   0.0391 (alat units)  1.1119 (a.u.) for type    1
     new r_m :   0.0373 (alat units)  1.0590 (a.u.) for type    2

     Initial potential from superposition of free atoms
     Check: negative starting charge=(component1):   -0.003141
     Check: negative starting charge=(component2):   -0.001047

     starting charge  284.99101, renormalised to  285.00000

     negative rho (up, down):  3.141E-03 1.047E-03
     Starting wfc are  284 randomized atomic wfcs

     total cpu time spent up to now is        8.1 secs

     per-process dynamical memory:   237.9 Mb

     Self-consistent Calculation

     iteration #  1     ecut=    55.00 Ry     beta=0.70
     Davidson diagonalization with overlap
     ethr =  1.00E-02,  avg # of iterations =  2.0

     negative rho (up, down):  5.128E-04 1.064E-04

     total cpu time spent up to now is       17.6 secs

     total energy              =    -914.79767217 Ry
     Harris-Foulkes estimate   =    -914.82137094 Ry
     estimated scf accuracy    <      17.06317869 Ry

     total magnetization       =     1.00 Bohr mag/cell
     absolute magnetization    =    10.45 Bohr mag/cell

     iteration #  2     ecut=    55.00 Ry     beta=0.70
     Davidson diagonalization with overlap
     ethr =  5.99E-03,  avg # of iterations =  3.5

     negative rho (up, down):  2.474E-04 3.272E-05

     total cpu time spent up to now is       28.0 secs

     total energy              =    -916.56212329 Ry
     Harris-Foulkes estimate   =    -922.27899067 Ry
     estimated scf accuracy    <      12.19860255 Ry

     total magnetization       =     1.00 Bohr mag/cell
     absolute magnetization    =     4.61 Bohr mag/cell

     iteration #  3     ecut=    55.00 Ry     beta=0.70
     Davidson diagonalization with overlap
     ethr =  4.28E-03,  avg # of iterations =  5.5

     negative rho (up, down):  1.268E-04 9.881E-06

     total cpu time spent up to now is       37.5 secs

     total energy              =    -918.32401739 Ry
     Harris-Foulkes estimate   =    -921.22653154 Ry
     estimated scf accuracy    <       8.37503734 Ry

     total magnetization       =     1.00 Bohr mag/cell
     absolute magnetization    =     3.80 Bohr mag/cell

     iteration #  4     ecut=    55.00 Ry     beta=0.70
     Davidson diagonalization with overlap
     ethr =  2.94E-03,  avg # of iterations =  5.0

     negative rho (up, down):  1.207E-05 3.622E-08

     total cpu time spent up to now is       45.6 secs

     total energy              =    -920.16223417 Ry
     Harris-Foulkes estimate   =    -920.37272429 Ry
     estimated scf accuracy    <       0.71022472 Ry

     total magnetization       =     1.00 Bohr mag/cell
     absolute magnetization    =     3.36 Bohr mag/cell

     iteration #  5     ecut=    55.00 Ry     beta=0.70
     Davidson diagonalization with overlap
     ethr =  2.49E-04,  avg # of iterations =  7.5

     negative rho (up, down):  1.122E-07 0.000E+00

     total cpu time spent up to now is       56.2 secs

     total energy              =    -920.00329568 Ry
     Harris-Foulkes estimate   =    -920.69501869 Ry
     estimated scf accuracy    <       3.13904013 Ry

     total magnetization       =     1.00 Bohr mag/cell
     absolute magnetization    =     2.20 Bohr mag/cell

     iteration #  6     ecut=    55.00 Ry     beta=0.70
     Davidson diagonalization with overlap
     ethr =  2.49E-04,  avg # of iterations =  5.5

     total cpu time spent up to now is       64.7 secs

     total energy              =    -920.42666092 Ry
     Harris-Foulkes estimate   =    -920.49223996 Ry
     estimated scf accuracy    <       0.22604057 Ry

     total magnetization       =     1.00 Bohr mag/cell
     absolute magnetization    =     2.00 Bohr mag/cell

     iteration #  7     ecut=    55.00 Ry     beta=0.70
     Davidson diagonalization with overlap
     ethr =  7.93E-05,  avg # of iterations =  3.0

     total cpu time spent up to now is       72.2 secs

     total energy              =    -920.43680659 Ry
     Harris-Foulkes estimate   =    -920.44859189 Ry
     estimated scf accuracy    <       0.07172903 Ry

     total magnetization       =     1.00 Bohr mag/cell
     absolute magnetization    =     1.72 Bohr mag/cell

     iteration #  8     ecut=    55.00 Ry     beta=0.70
     Davidson diagonalization with overlap
     ethr =  2.52E-05,  avg # of iterations =  6.0

     total cpu time spent up to now is       80.6 secs

     total energy              =    -920.43542097 Ry
     Harris-Foulkes estimate   =    -920.44212060 Ry
     estimated scf accuracy    <       0.03756350 Ry

     total magnetization       =     1.00 Bohr mag/cell
     absolute magnetization    =     1.39 Bohr mag/cell

     iteration #  9     ecut=    55.00 Ry     beta=0.70
     Davidson diagonalization with overlap
     ethr =  1.32E-05,  avg # of iterations =  4.0

     total cpu time spent up to now is       88.0 secs

     total energy              =    -920.43385920 Ry
     Harris-Foulkes estimate   =    -920.43771219 Ry
     estimated scf accuracy    <       0.01708956 Ry

     total magnetization       =     1.00 Bohr mag/cell
     absolute magnetization    =     1.28 Bohr mag/cell

     iteration # 10     ecut=    55.00 Ry     beta=0.70
     Davidson diagonalization with overlap
     ethr =  6.00E-06,  avg # of iterations = 16.0

     total cpu time spent up to now is       97.9 secs

     total energy              =    -920.43357213 Ry
     Harris-Foulkes estimate   =    -920.43497689 Ry
     estimated scf accuracy    <       0.00636165 Ry

     total magnetization       =     1.00 Bohr mag/cell
     absolute magnetization    =     1.21 Bohr mag/cell

     iteration # 11     ecut=    55.00 Ry     beta=0.70
     Davidson diagonalization with overlap
     ethr =  2.23E-06,  avg # of iterations =  4.0

     total cpu time spent up to now is      105.3 secs

     total energy              =    -920.43317407 Ry
     Harris-Foulkes estimate   =    -920.43395248 Ry
     estimated scf accuracy    <       0.00240265 Ry

     total magnetization       =     1.00 Bohr mag/cell
     absolute magnetization    =     1.19 Bohr mag/cell

     iteration # 12     ecut=    55.00 Ry     beta=0.70
     Davidson diagonalization with overlap
     ethr =  8.43E-07,  avg # of iterations =  8.5

     total cpu time spent up to now is      114.4 secs

     total energy              =    -920.43331139 Ry
     Harris-Foulkes estimate   =    -920.43349431 Ry
     estimated scf accuracy    <       0.00031299 Ry

     total magnetization       =     1.00 Bohr mag/cell
     absolute magnetization    =     1.19 Bohr mag/cell

     iteration # 13     ecut=    55.00 Ry     beta=0.70
     Davidson diagonalization with overlap
     ethr =  1.10E-07,  avg # of iterations =  4.5

     total cpu time spent up to now is      125.2 secs

     total energy              =    -920.43345372 Ry
     Harris-Foulkes estimate   =    -920.43353495 Ry
     estimated scf accuracy    <       0.00016615 Ry

     total magnetization       =     1.00 Bohr mag/cell
     absolute magnetization    =     1.23 Bohr mag/cell

     iteration # 14     ecut=    55.00 Ry     beta=0.70
     Davidson diagonalization with overlap
     ethr =  5.83E-08,  avg # of iterations =  4.0

     total cpu time spent up to now is      133.4 secs

     total energy              =    -920.43349183 Ry
     Harris-Foulkes estimate   =    -920.43349016 Ry
     estimated scf accuracy    <       0.00000735 Ry

     total magnetization       =     1.00 Bohr mag/cell
     absolute magnetization    =     1.22 Bohr mag/cell

     iteration # 15     ecut=    55.00 Ry     beta=0.70
     Davidson diagonalization with overlap
     ethr =  2.58E-09,  avg # of iterations =  4.5

     total cpu time spent up to now is      143.0 secs

     total energy              =    -920.43349580 Ry
     Harris-Foulkes estimate   =    -920.43349546 Ry
     estimated scf accuracy    <       0.00000453 Ry

     total magnetization       =     1.00 Bohr mag/cell
     absolute magnetization    =     1.23 Bohr mag/cell

     iteration # 16     ecut=    55.00 Ry     beta=0.70
     Davidson diagonalization with overlap
     ethr =  1.59E-09,  avg # of iterations =  4.0
 
     Magnetic moment per site:
     atom:    1    charge:    0.8229    magn:    0.0008    constr:    0.0000
     atom:    2    charge:    0.8371    magn:    0.0011    constr:    0.0000
     atom:    3    charge:    0.8470    magn:    0.0000    constr:    0.0000
     atom:    4    charge:    0.8440    magn:    0.0009    constr:    0.0000
     atom:    5    charge:    0.8400    magn:    0.0003    constr:    0.0000
     atom:    6    charge:    0.8343    magn:    0.0035    constr:    0.0000
     atom:    7    charge:    0.8318    magn:    0.0013    constr:    0.0000
     atom:    8    charge:    0.8026    magn:    0.0026    constr:    0.0000
     atom:    9    charge:    0.8536    magn:    0.0063    constr:    0.0000
     atom:   10    charge:    0.8529    magn:    0.0051    constr:    0.0000
     atom:   11    charge:    0.8447    magn:    0.0016    constr:    0.0000
     atom:   12    charge:    0.8415    magn:    0.0003    constr:    0.0000
     atom:   13    charge:    0.8396    magn:    0.0006    constr:    0.0000
     atom:   14    charge:    0.8226    magn:    0.0108    constr:    0.0000
     atom:   15    charge:    0.7542    magn:    0.0635    constr:    0.0000
     atom:   16    charge:    0.8746    magn:    0.0198    constr:    0.0000
     atom:   17    charge:    0.8525    magn:    0.0051    constr:    0.0000
     atom:   18    charge:    0.8446    magn:    0.0009    constr:    0.0000
     atom:   19    charge:    0.8492    magn:    0.0004    constr:    0.0000
     atom:   20    charge:    0.8730    magn:    0.0038    constr:    0.0000
     atom:   21    charge:    2.3923    magn:    0.0207    constr:    0.0000
     atom:   22    charge:    0.7541    magn:    0.0636    constr:    0.0000
     atom:   23    charge:    0.8536    magn:    0.0064    constr:    0.0000
     atom:   24    charge:    0.8476    magn:    0.0000    constr:    0.0000
     atom:   25    charge:    0.8468    magn:    0.0003    constr:    0.0000
     atom:   26    charge:    0.8602    magn:    0.0020    constr:    0.0000
     atom:   27    charge:    0.8732    magn:    0.0037    constr:    0.0000
     atom:   28    charge:    0.8227    magn:    0.0107    constr:    0.0000
     atom:   29    charge:    0.8028    magn:    0.0026    constr:    0.0000
     atom:   30    charge:    0.8358    magn:    0.0010    constr:    0.0000
     atom:   31    charge:    0.8381    magn:    0.0036    constr:    0.0000
     atom:   32    charge:    0.8465    magn:    0.0003    constr:    0.0000
     atom:   33    charge:    0.8495    magn:    0.0004    constr:    0.0000
     atom:   34    charge:    0.8381    magn:    0.0006    constr:    0.0000
     atom:   35    charge:    0.8317    magn:    0.0013    constr:    0.0000
     atom:   36    charge:    0.8225    magn:    0.0008    constr:    0.0000
     atom:   37    charge:    2.5428    magn:   -0.0010    constr:    0.0000
     atom:   38    charge:    2.5478    magn:    0.0025    constr:    0.0000
     atom:   39    charge:    2.5515    magn:    0.0002    constr:    0.0000
     atom:   40    charge:    2.5395    magn:   -0.0006    constr:    0.0000
     atom:   41    charge:    2.5322    magn:   -0.0008    constr:    0.0000
     atom:   42    charge:    2.5259    magn:   -0.0012    constr:    0.0000
     atom:   43    charge:    2.5226    magn:   -0.0014    constr:    0.0000
     atom:   44    charge:    2.5454    magn:    0.0019    constr:    0.0000
     atom:   45    charge:    2.5473    magn:   -0.0022    constr:    0.0000
     atom:   46    charge:    2.5485    magn:   -0.0012    constr:    0.0000
     atom:   47    charge:    2.5417    magn:   -0.0005    constr:    0.0000
     atom:   48    charge:    2.5318    magn:   -0.0008    constr:    0.0000
     atom:   49    charge:    2.5247    magn:   -0.0025    constr:    0.0000
     atom:   50    charge:    2.4786    magn:   -0.0074    constr:    0.0000
     atom:   51    charge:    2.5548    magn:   -0.0089    constr:    0.0000
     atom:   52    charge:    2.5581    magn:   -0.0052    constr:    0.0000
     atom:   53    charge:    2.5426    magn:   -0.0012    constr:    0.0000
     atom:   54    charge:    2.5455    magn:   -0.0006    constr:    0.0000
     atom:   55    charge:    2.5510    magn:    0.0007    constr:    0.0000
     atom:   56    charge:    2.5117    magn:   -0.0015    constr:    0.0000
     atom:   57    charge:    2.5522    magn:   -0.0089    constr:    0.0000
     atom:   58    charge:    2.5510    magn:   -0.0022    constr:    0.0000
     atom:   59    charge:    2.5504    magn:    0.0002    constr:    0.0000
     atom:   60    charge:    2.5494    magn:    0.0003    constr:    0.0000
     atom:   61    charge:    2.5593    magn:    0.0003    constr:    0.0000
     atom:   62    charge:    2.5119    magn:   -0.0015    constr:    0.0000
     atom:   63    charge:    2.4799    magn:   -0.0074    constr:    0.0000
     atom:   64    charge:    2.5413    magn:    0.0019    constr:    0.0000
     atom:   65    charge:    2.5429    magn:    0.0025    constr:    0.0000
     atom:   66    charge:    2.5442    magn:   -0.0008    constr:    0.0000
     atom:   67    charge:    2.5434    magn:    0.0003    constr:    0.0000
     atom:   68    charge:    2.5538    magn:    0.0007    constr:    0.0000
     atom:   69    charge:    2.5257    magn:   -0.0025    constr:    0.0000
     atom:   70    charge:    2.5166    magn:   -0.0014    constr:    0.0000
     atom:   71    charge:    2.5398    magn:   -0.0010    constr:    0.0000

     total cpu time spent up to now is      151.9 secs

     End of self-consistent calculation

 ------ SPIN UP ------------


          k = 0.0000 0.0000 0.0000 (182351 PWs)   bands (ev):

   -25.9293 -22.2103 -21.9152 -21.4460 -21.3142 -21.2347 -21.0703 -20.9464
   -20.6224 -20.5502 -20.3674 -20.1818 -20.1651 -20.1067 -19.9958 -19.8392
   -19.6829 -19.6758 -19.5417 -19.4043 -19.2200 -19.0302 -18.9580 -18.8968
   -18.8854 -18.8112 -18.7242 -18.6264 -18.6072 -18.5871 -18.5248 -18.3862
   -18.3022 -18.1314 -17.7073 -16.7238 -13.9663 -13.7691 -13.1738 -12.8991
   -12.7246 -12.5140 -12.3405 -12.3312 -12.2883 -12.1616 -12.1061 -12.0515
   -12.0441 -12.0266 -11.8669 -11.8638 -11.5974 -11.4984 -11.3370 -11.2038
   -11.0727 -11.0318 -10.8733 -10.8516 -10.8073 -10.5333 -10.2882 -10.0802
   -10.0768  -9.8621  -9.8365  -9.6907  -9.6329  -9.5723  -9.5689  -9.4710
    -9.4109  -9.3905  -9.3077  -9.2933  -9.2680  -9.2375  -9.0187  -8.9558
    -8.9192  -8.8405  -8.8074  -8.6059  -8.5079  -8.4402  -8.4204  -8.3481
    -8.3128  -8.2342  -8.1444  -8.1143  -8.0779  -8.0361  -7.9736  -7.9234
    -7.8305  -7.8142  -7.7421  -7.6923  -7.6539  -7.5440  -7.5151  -7.4847
    -7.3869  -7.3661  -7.2228  -7.2158  -7.1845  -7.1682  -6.9292  -6.9286
    -6.8528  -6.7869  -6.7316  -6.5886  -6.5620  -6.5317  -6.4625  -6.3514
    -6.3430  -6.1756  -6.1671  -5.9516  -5.6477  -5.5600  -5.5477  -5.4754
    -5.4337  -5.3152  -5.2583  -5.2372  -5.1725  -5.0694  -5.0218  -4.9673
    -4.9459  -4.7903  -4.6506  -4.2769  -3.9609  -3.3252  -3.0682  -0.1019
     0.2333   0.5011   0.5022   0.5531   0.5846   0.8647   1.0065

 ------ SPIN DOWN ----------


          k = 0.0000 0.0000 0.0000 (182351 PWs)   bands (ev):

   -25.9048 -22.2055 -21.9112 -21.4430 -21.3123 -21.2317 -21.0666 -20.9435
   -20.6141 -20.5470 -20.3645 -20.1791 -20.1601 -20.1045 -19.9934 -19.8359
   -19.6777 -19.6717 -19.5342 -19.3997 -19.2157 -19.0286 -18.9497 -18.8951
   -18.8840 -18.8101 -18.7225 -18.6244 -18.6037 -18.5869 -18.5202 -18.3815
   -18.3025 -18.1292 -17.7062 -16.7025 -13.9558 -13.7583 -13.1699 -12.8922
   -12.7157 -12.5075 -12.3320 -12.3269 -12.2808 -12.1590 -12.0921 -12.0464
   -12.0314 -12.0239 -11.8601 -11.8487 -11.5877 -11.4875 -11.3086 -11.1974
   -11.0579 -11.0228 -10.8451 -10.8376 -10.7552 -10.5153 -10.2572 -10.0748
   -10.0680  -9.8520  -9.8331  -9.6816  -9.6284  -9.5667  -9.5627  -9.4585
    -9.4069  -9.3776  -9.3024  -9.2800  -9.2574  -9.2216  -9.0018  -8.9401
    -8.9089  -8.8268  -8.7854  -8.5941  -8.4896  -8.4347  -8.3927  -8.3417
    -8.2989  -8.2307  -8.1400  -8.1088  -8.0760  -8.0104  -7.9721  -7.9166
    -7.8178  -7.7677  -7.7407  -7.6901  -7.6515  -7.5406  -7.4980  -7.4815
    -7.3830  -7.3506  -7.2113  -7.2019  -7.1588  -7.1563  -6.9192  -6.9136
    -6.8460  -6.7730  -6.7162  -6.5630  -6.5604  -6.4948  -6.4416  -6.3508
    -6.2771  -6.1689  -6.1595  -5.9388  -5.6047  -5.5567  -5.5117  -5.4595
    -5.4212  -5.3070  -5.2498  -5.2322  -5.1658  -5.0580  -5.0058  -4.9460
    -4.9311  -4.7820  -4.6042  -4.2464  -3.9393  -3.0847  -2.9653   0.2875
     0.4917   0.5267   0.5355   0.6292   0.6758   0.9575   1.0437

     highest occupied, lowest unoccupied level (ev):    -3.0847   -3.0682

!    total energy              =    -920.43349766 Ry
     Harris-Foulkes estimate   =    -920.43349731 Ry
     estimated scf accuracy    <       0.00000099 Ry

     The total energy is the sum of the following terms:

     one-electron contribution =   -7780.77658916 Ry
     hartree contribution      =    3942.28778188 Ry
     xc contribution           =    -262.13086990 Ry
     ewald contribution        =    3180.18617951 Ry

     total magnetization       =     1.00 Bohr mag/cell
     absolute magnetization    =     1.23 Bohr mag/cell

     convergence has been achieved in  16 iterations

     Writing output data file BN.save
 
     init_run     :      7.89s CPU      8.03s WALL (       1 calls)
     electrons    :    142.31s CPU    144.09s WALL (       1 calls)

     Called by init_run:
     wfcinit      :      4.30s CPU      4.37s WALL (       1 calls)
     potinit      :      1.03s CPU      1.07s WALL (       1 calls)

     Called by electrons:
     c_bands      :    116.89s CPU    118.08s WALL (      16 calls)
     sum_band     :     16.12s CPU     16.27s WALL (      16 calls)
     v_of_rho     :      6.63s CPU      6.90s WALL (      17 calls)
     mix_rho      :      2.25s CPU      2.35s WALL (      16 calls)

     Called by c_bands:
     init_us_2    :      1.43s CPU      1.46s WALL (      33 calls)
     cegterg      :    112.41s CPU    113.60s WALL (      16 calls)

     Called by sum_band:

     Called by *egterg:
     h_psi        :     85.23s CPU     85.29s WALL (     114 calls)
     g_psi        :      0.29s CPU      0.29s WALL (      97 calls)
     cdiaghg      :      5.22s CPU      5.43s WALL (     113 calls)

     Called by h_psi:
     h_psi:pot    :     84.40s CPU     84.46s WALL (     114 calls)
     h_psi:calbec :     11.99s CPU     11.99s WALL (     114 calls)
     vloc_psi     :     59.78s CPU     59.84s WALL (     114 calls)
     add_vuspsi   :     12.63s CPU     12.62s WALL (     114 calls)

     General routines
     calbec       :     11.99s CPU     11.99s WALL (     114 calls)
     fft          :      2.65s CPU      3.01s WALL (     354 calls)
     fftw         :     55.01s CPU     55.04s WALL (   15400 calls)
 
     Parallel routines
     fft_scatter  :     18.50s CPU     18.88s WALL (   15754 calls)
 
     PWSCF        :  2m34.20s CPU     2m37.09s WALL

 
   This run was terminated on:  13:40: 9   1Jun2021            

=------------------------------------------------------------------------------=
   JOB DONE.
=------------------------------------------------------------------------------=
