
     Program PWSCF v.6.1 (svn rev. 13369) starts on 12May2020 at 10:24:44 

     This program is part of the open-source Quantum ESPRESSO suite
     for quantum simulation of materials; please cite
         "P. Giannozzi et al., J. Phys.:Condens. Matter 21 395502 (2009);
          URL http://www.quantum-espresso.org", 
     in publications or presentations arising from this work. More details at
     http://www.quantum-espresso.org/quote

     Parallel version (MPI), running on    96 processors
     K-points division:     npool     =       6
     R & G space division:  proc/nbgrp/npool/nimage =      16
     Reading input from scf.in
Warning: card &IONS ignored
Warning: card / ignored

     Current dimensions of program PWSCF are:
     Max number of different atomic species (ntypx) = 10
     Max number of k-points (npk) =  40000
     Max angular momentum in pseudopotentials (lmaxx) =  3

     Subspace diagonalization in iterative solution of the eigenvalue problem:
     a serial algorithm will be used

 
     Parallelization info
     --------------------
     sticks:   dense  smooth     PW     G-vecs:    dense   smooth      PW
     Min         252     252     67                12125    12125    1669
     Max         254     254     68                12129    12129    1672
     Sum        4049    4049   1085               194039   194039   26745
 


     bravais-lattice index     =            1
     lattice parameter (alat)  =      13.4862  a.u.
     unit-cell volume          =    2452.8358 (a.u.)^3
     number of atoms/cell      =           63
     number of atomic types    =            2
     number of electrons       =       254.00 (up: 127.00, down: 127.00)
     number of Kohn-Sham states=          152
     kinetic-energy cutoff     =      70.0000  Ry
     charge density cutoff     =     280.0000  Ry
     convergence threshold     =      1.0E-06
     mixing beta               =       0.5000
     number of iterations used =            8  plain     mixing
     Exchange-correlation      = PBE ( 1  4  3  4 0 0)

     celldm(1)=  13.486197  celldm(2)=   0.000000  celldm(3)=   0.000000
     celldm(4)=   0.000000  celldm(5)=   0.000000  celldm(6)=   0.000000

     crystal axes: (cart. coord. in units of alat)
               a(1) = (   1.000000   0.000000   0.000000 )  
               a(2) = (   0.000000   1.000000   0.000000 )  
               a(3) = (   0.000000   0.000000   1.000000 )  

     reciprocal axes: (cart. coord. in units 2 pi/alat)
               b(1) = (  1.000000  0.000000  0.000000 )  
               b(2) = (  0.000000  1.000000  0.000000 )  
               b(3) = (  0.000000  0.000000  1.000000 )  


     PseudoPot. # 1 for C  read from file:
     /home/tjsmart/Pseudo/C_ONCV_PBE-1.0.upf
     MD5 check sum: 72b63e32b2fd29504de26a4901699f60
     Pseudo is Norm-conserving, Zval =  4.0
     Generated using ONCVPSP code by D. R. Hamann
     Using radial grid of 1248 points,  4 beta functions with: 
                l(1) =   0
                l(2) =   0
                l(3) =   1
                l(4) =   1

     PseudoPot. # 2 for N  read from file:
     /home/tjsmart/Pseudo/N_ONCV_PBE-1.0.upf
     MD5 check sum: 09890da6b2972017450f7114a6086fad
     Pseudo is Norm-conserving, Zval =  5.0
     Generated using ONCVPSP code by D. R. Hamann
     Using radial grid of 1058 points,  4 beta functions with: 
                l(1) =   0
                l(2) =   0
                l(3) =   1
                l(4) =   1

     atomic species   valence    mass     pseudopotential
        C              4.00    12.01110     C ( 1.00)
        N              5.00    14.00670     N ( 1.00)

     Starting magnetic structure 
     atomic species   magnetization
        C            0.200
        N            0.200

      6 Sym. Ops. (no inversion) found


                                    s                        frac. trans.

      isym =  1     identity                                     

 cryst.   s( 1) = (     1          0          0      )
                  (     0          1          0      )
                  (     0          0          1      )

 cart.    s( 1) = (  1.0000000  0.0000000  0.0000000 )
                  (  0.0000000  1.0000000  0.0000000 )
                  (  0.0000000  0.0000000  1.0000000 )


      isym =  2     120 deg rotation - cart. axis [-1,-1,-1]     

 cryst.   s( 2) = (     0          0          1      )
                  (     1          0          0      )
                  (     0          1          0      )

 cart.    s( 2) = (  0.0000000  1.0000000  0.0000000 )
                  (  0.0000000  0.0000000  1.0000000 )
                  (  1.0000000  0.0000000  0.0000000 )


      isym =  3     120 deg rotation - cart. axis [1,1,1]        

 cryst.   s( 3) = (     0          1          0      )
                  (     0          0          1      )
                  (     1          0          0      )

 cart.    s( 3) = (  0.0000000  0.0000000  1.0000000 )
                  (  1.0000000  0.0000000  0.0000000 )
                  (  0.0000000  1.0000000  0.0000000 )


      isym =  4     inv. 180 deg rotation - cart. axis [1,-1,0]  

 cryst.   s( 4) = (     0          1          0      )
                  (     1          0          0      )
                  (     0          0          1      )

 cart.    s( 4) = (  0.0000000  1.0000000  0.0000000 )
                  (  1.0000000  0.0000000  0.0000000 )
                  (  0.0000000  0.0000000  1.0000000 )


      isym =  5     inv. 180 deg rotation - cart. axis [-1,0,1]  

 cryst.   s( 5) = (     0          0          1      )
                  (     0          1          0      )
                  (     1          0          0      )

 cart.    s( 5) = (  0.0000000  0.0000000  1.0000000 )
                  (  0.0000000  1.0000000  0.0000000 )
                  (  1.0000000  0.0000000  0.0000000 )


      isym =  6     inv. 180 deg rotation - cart. axis [0,1,-1]  

 cryst.   s( 6) = (     1          0          0      )
                  (     0          0          1      )
                  (     0          1          0      )

 cart.    s( 6) = (  1.0000000  0.0000000  0.0000000 )
                  (  0.0000000  0.0000000  1.0000000 )
                  (  0.0000000  1.0000000  0.0000000 )


     point group C_3v (3m)  
     there are  3 classes
     the character table:

       E     2C3   3s_v 
A_1    1.00  1.00  1.00
A_2    1.00  1.00 -1.00
E      2.00 -1.00  0.00

     the symmetry operations in each class and the name of the first element:

     E        1
          identity                                               
     2C3      2    3
          120 deg rotation - cart. axis [-1,-1,-1]               
     3s_v     4    5    6
          inv. 180 deg rotation - cart. axis [1,-1,0]            

   Cartesian axes

     site n.     atom                  positions (alat units)
         1           C   tau(   1) = (   0.3757341   0.3757341   0.8736967  )
         2           C   tau(   2) = (   0.5000407   0.0001753   0.0001753  )
         3           C   tau(   3) = (   0.5000590  -0.0000497   0.5000590  )
         4           C   tau(   4) = (   0.0001753   0.5000407   0.0001753  )
         5           C   tau(   5) = (  -0.0000497   0.5000590   0.5000590  )
         6           C   tau(   6) = (  -0.0001110  -0.0001110  -0.0001110  )
         7           C   tau(   7) = (   0.0001753   0.0001753   0.5000407  )
         8           C   tau(   8) = (   0.2502085   0.2502085  -0.0012474  )
         9           C   tau(   9) = (   0.2505863   0.2505863   0.4946732  )
        10           C   tau(  10) = (   0.2504219   0.7490213   0.0010118  )
        11           C   tau(  11) = (   0.2527209   0.7477141   0.5016078  )
        12           C   tau(  12) = (   0.7490213   0.2504219   0.0010118  )
        13           C   tau(  13) = (   0.7477141   0.2527209   0.5016078  )
        14           C   tau(  14) = (   0.7496590   0.7496590  -0.0001708  )
        15           C   tau(  15) = (   0.5000590   0.5000590  -0.0000497  )
        16           C   tau(  16) = (   0.7491688   0.7491688   0.4988075  )
        17           C   tau(  17) = (   0.5016078   0.2527209   0.7477141  )
        18           C   tau(  18) = (   0.5016078   0.7477141   0.2527209  )
        19           C   tau(  19) = (   0.4988075   0.7491688   0.7491688  )
        20           C   tau(  20) = (  -0.0012474   0.2502085   0.2502085  )
        21           C   tau(  21) = (   0.0010118   0.2504219   0.7490213  )
        22           C   tau(  22) = (   0.0010118   0.7490213   0.2504219  )
        23           C   tau(  23) = (  -0.0001708   0.7496590   0.7496590  )
        24           C   tau(  24) = (   0.2505863   0.4946732   0.2505863  )
        25           C   tau(  25) = (   0.2527209   0.5016078   0.7477141  )
        26           C   tau(  26) = (   0.2502085  -0.0012474   0.2502085  )
        27           C   tau(  27) = (   0.2504219   0.0010118   0.7490213  )
        28           C   tau(  28) = (   0.7477141   0.5016078   0.2527209  )
        29           C   tau(  29) = (   0.7491688   0.4988075   0.7491688  )
        30           C   tau(  30) = (   0.4946732   0.2505863   0.2505863  )
        31           C   tau(  31) = (   0.7490213   0.0010118   0.2504219  )
        32           C   tau(  32) = (   0.6247024   0.8744892   0.6247024  )
        33           C   tau(  33) = (   0.6346219   0.3677312   0.6346219  )
        34           C   tau(  34) = (   0.3759073   0.8762008   0.8762008  )
        35           C   tau(  35) = (   0.3757341   0.8736967   0.3757341  )
        36           C   tau(  36) = (   0.8762008   0.3759073   0.8762008  )
        37           C   tau(  37) = (   0.8736967   0.3757341   0.3757341  )
        38           C   tau(  38) = (   0.8747237   0.8747237   0.8747237  )
        39           C   tau(  39) = (   0.8762008   0.8762008   0.3759073  )
        40           C   tau(  40) = (   0.1253844   0.1253844   0.8742341  )
        41           C   tau(  41) = (   0.1238062   0.1238062   0.3748656  )
        42           C   tau(  42) = (   0.1244132   0.6245662   0.8758264  )
        43           C   tau(  43) = (   0.1271299   0.6228927   0.3763047  )
        44           C   tau(  44) = (   0.6245662   0.1244132   0.8758264  )
        45           C   tau(  45) = (   0.6228927   0.1271299   0.3763047  )
        46           C   tau(  46) = (   0.6245662   0.8758264   0.1244132  )
        47           C   tau(  47) = (   0.6247024   0.6247024   0.8744892  )
        48           C   tau(  48) = (   0.3748656   0.1238062   0.1238062  )
        49           C   tau(  49) = (   0.3763047   0.1271299   0.6228927  )
        50           C   tau(  50) = (   0.3763047   0.6228927   0.1271299  )
        51           C   tau(  51) = (   0.3677312   0.6346219   0.6346219  )
        52           C   tau(  52) = (   0.8742341   0.1253844   0.1253844  )
        53           C   tau(  53) = (   0.8758264   0.1244132   0.6245662  )
        54           C   tau(  54) = (   0.8758264   0.6245662   0.1244132  )
        55           C   tau(  55) = (   0.8744892   0.6247024   0.6247024  )
        56           C   tau(  56) = (   0.1238062   0.3748656   0.1238062  )
        57           C   tau(  57) = (   0.1271299   0.3763047   0.6228927  )
        58           C   tau(  58) = (   0.1253844   0.8742341   0.1253844  )
        59           C   tau(  59) = (   0.1244132   0.8758264   0.6245662  )
        60           C   tau(  60) = (   0.6228927   0.3763047   0.1271299  )
        61           C   tau(  61) = (   0.6346219   0.6346219   0.3677312  )
        62           C   tau(  62) = (   0.7496590  -0.0001708   0.7496590  )
        63           N   tau(  63) = (   0.3645343   0.3645343   0.3645343  )

   Crystallographic axes

     site n.     atom                  positions (cryst. coord.)
         1           C   tau(   1) = (  0.3757341  0.3757341  0.8736967  )
         2           C   tau(   2) = (  0.5000407  0.0001753  0.0001753  )
         3           C   tau(   3) = (  0.5000590 -0.0000497  0.5000590  )
         4           C   tau(   4) = (  0.0001753  0.5000407  0.0001753  )
         5           C   tau(   5) = ( -0.0000497  0.5000590  0.5000590  )
         6           C   tau(   6) = ( -0.0001110 -0.0001110 -0.0001110  )
         7           C   tau(   7) = (  0.0001753  0.0001753  0.5000407  )
         8           C   tau(   8) = (  0.2502085  0.2502085 -0.0012474  )
         9           C   tau(   9) = (  0.2505863  0.2505863  0.4946732  )
        10           C   tau(  10) = (  0.2504219  0.7490213  0.0010118  )
        11           C   tau(  11) = (  0.2527209  0.7477141  0.5016078  )
        12           C   tau(  12) = (  0.7490213  0.2504219  0.0010118  )
        13           C   tau(  13) = (  0.7477141  0.2527209  0.5016078  )
        14           C   tau(  14) = (  0.7496590  0.7496590 -0.0001708  )
        15           C   tau(  15) = (  0.5000590  0.5000590 -0.0000497  )
        16           C   tau(  16) = (  0.7491688  0.7491688  0.4988075  )
        17           C   tau(  17) = (  0.5016078  0.2527209  0.7477141  )
        18           C   tau(  18) = (  0.5016078  0.7477141  0.2527209  )
        19           C   tau(  19) = (  0.4988075  0.7491688  0.7491688  )
        20           C   tau(  20) = ( -0.0012474  0.2502085  0.2502085  )
        21           C   tau(  21) = (  0.0010118  0.2504219  0.7490213  )
        22           C   tau(  22) = (  0.0010118  0.7490213  0.2504219  )
        23           C   tau(  23) = ( -0.0001708  0.7496590  0.7496590  )
        24           C   tau(  24) = (  0.2505863  0.4946732  0.2505863  )
        25           C   tau(  25) = (  0.2527209  0.5016078  0.7477141  )
        26           C   tau(  26) = (  0.2502085 -0.0012474  0.2502085  )
        27           C   tau(  27) = (  0.2504219  0.0010118  0.7490213  )
        28           C   tau(  28) = (  0.7477141  0.5016078  0.2527209  )
        29           C   tau(  29) = (  0.7491688  0.4988075  0.7491688  )
        30           C   tau(  30) = (  0.4946732  0.2505863  0.2505863  )
        31           C   tau(  31) = (  0.7490213  0.0010118  0.2504219  )
        32           C   tau(  32) = (  0.6247024  0.8744892  0.6247024  )
        33           C   tau(  33) = (  0.6346219  0.3677312  0.6346219  )
        34           C   tau(  34) = (  0.3759073  0.8762008  0.8762008  )
        35           C   tau(  35) = (  0.3757341  0.8736967  0.3757341  )
        36           C   tau(  36) = (  0.8762008  0.3759073  0.8762008  )
        37           C   tau(  37) = (  0.8736967  0.3757341  0.3757341  )
        38           C   tau(  38) = (  0.8747237  0.8747237  0.8747237  )
        39           C   tau(  39) = (  0.8762008  0.8762008  0.3759073  )
        40           C   tau(  40) = (  0.1253844  0.1253844  0.8742341  )
        41           C   tau(  41) = (  0.1238062  0.1238062  0.3748656  )
        42           C   tau(  42) = (  0.1244132  0.6245662  0.8758264  )
        43           C   tau(  43) = (  0.1271299  0.6228927  0.3763047  )
        44           C   tau(  44) = (  0.6245662  0.1244132  0.8758264  )
        45           C   tau(  45) = (  0.6228927  0.1271299  0.3763047  )
        46           C   tau(  46) = (  0.6245662  0.8758264  0.1244132  )
        47           C   tau(  47) = (  0.6247024  0.6247024  0.8744892  )
        48           C   tau(  48) = (  0.3748656  0.1238062  0.1238062  )
        49           C   tau(  49) = (  0.3763047  0.1271299  0.6228927  )
        50           C   tau(  50) = (  0.3763047  0.6228927  0.1271299  )
        51           C   tau(  51) = (  0.3677312  0.6346219  0.6346219  )
        52           C   tau(  52) = (  0.8742341  0.1253844  0.1253844  )
        53           C   tau(  53) = (  0.8758264  0.1244132  0.6245662  )
        54           C   tau(  54) = (  0.8758264  0.6245662  0.1244132  )
        55           C   tau(  55) = (  0.8744892  0.6247024  0.6247024  )
        56           C   tau(  56) = (  0.1238062  0.3748656  0.1238062  )
        57           C   tau(  57) = (  0.1271299  0.3763047  0.6228927  )
        58           C   tau(  58) = (  0.1253844  0.8742341  0.1253844  )
        59           C   tau(  59) = (  0.1244132  0.8758264  0.6245662  )
        60           C   tau(  60) = (  0.6228927  0.3763047  0.1271299  )
        61           C   tau(  61) = (  0.6346219  0.6346219  0.3677312  )
        62           C   tau(  62) = (  0.7496590 -0.0001708  0.7496590  )
        63           N   tau(  63) = (  0.3645343  0.3645343  0.3645343  )

     number of k points=     6  Marzari-Vanderbilt smearing, width (Ry)=  0.0010
                       cart. coord. in units 2pi/alat
        k(    1) = (   0.0000000   0.0000000   0.0000000), wk =   0.0370370
        k(    2) = (   0.0000000   0.0000000   0.3333333), wk =   0.2222222
        k(    3) = (   0.0000000   0.3333333   0.3333333), wk =   0.2222222
        k(    4) = (   0.3333333   0.3333333   0.3333333), wk =   0.0740741
        k(    5) = (  -0.3333333   0.0000000   0.3333333), wk =   0.2222222
        k(    6) = (   0.3333333  -0.3333333   0.3333333), wk =   0.2222222

                       cryst. coord.
        k(    1) = (   0.0000000   0.0000000   0.0000000), wk =   0.0370370
        k(    2) = (   0.0000000   0.0000000   0.3333333), wk =   0.2222222
        k(    3) = (   0.0000000   0.3333333   0.3333333), wk =   0.2222222
        k(    4) = (   0.3333333   0.3333333   0.3333333), wk =   0.0740741
        k(    5) = (  -0.3333333   0.0000000   0.3333333), wk =   0.2222222
        k(    6) = (   0.3333333  -0.3333333   0.3333333), wk =   0.2222222

     Dense  grid:   194039 G-vectors     FFT dimensions: (  72,  72,  72)

     Estimated max dynamical RAM per process >      60.23MB

     Estimated total allocated dynamical RAM >    5782.56MB
     Generating pointlists ...
     new r_m :   0.0854 (alat units)  1.1523 (a.u.) for type    1
     new r_m :   0.0854 (alat units)  1.1523 (a.u.) for type    2

     Initial potential from superposition of free atoms

     starting charge  252.99722, renormalised to  254.00000
     Starting wfc are  252 randomized atomic wfcs

     total cpu time spent up to now is        3.8 secs

     per-process dynamical memory:    59.5 Mb

     Self-consistent Calculation

     iteration #  1     ecut=    70.00 Ry     beta=0.50
     Davidson diagonalization with overlap
     ethr =  1.00E-02,  avg # of iterations =  3.0

     total cpu time spent up to now is        6.1 secs

     total energy              =    -724.34521231 Ry
     Harris-Foulkes estimate   =    -724.78267939 Ry
     estimated scf accuracy    <       4.21854317 Ry

     total magnetization       =    -0.00 Bohr mag/cell
     absolute magnetization    =     0.90 Bohr mag/cell

     iteration #  2     ecut=    70.00 Ry     beta=0.50
     Davidson diagonalization with overlap
     ethr =  1.66E-03,  avg # of iterations =  2.0

     total cpu time spent up to now is        7.5 secs

     total energy              =    -724.66948271 Ry
     Harris-Foulkes estimate   =    -724.58543500 Ry
     estimated scf accuracy    <       0.66835105 Ry

     total magnetization       =     0.00 Bohr mag/cell
     absolute magnetization    =     0.35 Bohr mag/cell

     iteration #  3     ecut=    70.00 Ry     beta=0.50
     Davidson diagonalization with overlap
     ethr =  2.63E-04,  avg # of iterations =  8.7

     total cpu time spent up to now is       11.6 secs

     total energy              =    -724.73801287 Ry
     Harris-Foulkes estimate   =    -724.77950147 Ry
     estimated scf accuracy    <       0.15189609 Ry

     total magnetization       =    -0.00 Bohr mag/cell
     absolute magnetization    =     0.11 Bohr mag/cell

     iteration #  4     ecut=    70.00 Ry     beta=0.50
     Davidson diagonalization with overlap
     ethr =  5.98E-05,  avg # of iterations =  7.7

     total cpu time spent up to now is       15.5 secs

     total energy              =    -724.77633082 Ry
     Harris-Foulkes estimate   =    -724.77381899 Ry
     estimated scf accuracy    <       0.01291788 Ry

     total magnetization       =     0.00 Bohr mag/cell
     absolute magnetization    =     0.07 Bohr mag/cell

     iteration #  5     ecut=    70.00 Ry     beta=0.50
     Davidson diagonalization with overlap
     ethr =  5.09E-06,  avg # of iterations =  9.1

     total cpu time spent up to now is       20.5 secs

     total energy              =    -724.77954932 Ry
     Harris-Foulkes estimate   =    -724.77932537 Ry
     estimated scf accuracy    <       0.00151518 Ry

     total magnetization       =    -0.00 Bohr mag/cell
     absolute magnetization    =     0.04 Bohr mag/cell

     iteration #  6     ecut=    70.00 Ry     beta=0.50
     Davidson diagonalization with overlap
     ethr =  5.97E-07,  avg # of iterations =  7.5

     total cpu time spent up to now is       24.8 secs

     total energy              =    -724.77979832 Ry
     Harris-Foulkes estimate   =    -724.77982761 Ry
     estimated scf accuracy    <       0.00020045 Ry

     total magnetization       =     0.00 Bohr mag/cell
     absolute magnetization    =     0.02 Bohr mag/cell

     iteration #  7     ecut=    70.00 Ry     beta=0.50
     Davidson diagonalization with overlap
     ethr =  7.89E-08,  avg # of iterations =  3.0

     total cpu time spent up to now is       26.8 secs

     total energy              =    -724.77985599 Ry
     Harris-Foulkes estimate   =    -724.77986514 Ry
     estimated scf accuracy    <       0.00003665 Ry

     total magnetization       =    -0.00 Bohr mag/cell
     absolute magnetization    =     0.01 Bohr mag/cell

     iteration #  8     ecut=    70.00 Ry     beta=0.50
     Davidson diagonalization with overlap
     ethr =  1.44E-08,  avg # of iterations =  2.8

     total cpu time spent up to now is       28.7 secs

     total energy              =    -724.77986384 Ry
     Harris-Foulkes estimate   =    -724.77986383 Ry
     estimated scf accuracy    <       0.00000295 Ry

     total magnetization       =    -0.00 Bohr mag/cell
     absolute magnetization    =     0.01 Bohr mag/cell

     iteration #  9     ecut=    70.00 Ry     beta=0.50
     Davidson diagonalization with overlap
     ethr =  1.16E-09,  avg # of iterations =  3.2
 
     Magnetic moment per site:
     atom:    1    charge:    1.8245    magn:    0.0000    constr:    0.0000
     atom:    2    charge:    1.8407    magn:   -0.0000    constr:    0.0000
     atom:    3    charge:    1.8302    magn:    0.0000    constr:    0.0000
     atom:    4    charge:    1.8407    magn:   -0.0000    constr:    0.0000
     atom:    5    charge:    1.8302    magn:    0.0000    constr:    0.0000
     atom:    6    charge:    1.8197    magn:    0.0000    constr:    0.0000
     atom:    7    charge:    1.8407    magn:   -0.0000    constr:    0.0000
     atom:    8    charge:    1.8236    magn:    0.0000    constr:    0.0000
     atom:    9    charge:    1.8032    magn:   -0.0001    constr:    0.0000
     atom:   10    charge:    1.8178    magn:    0.0000    constr:    0.0000
     atom:   11    charge:    1.8284    magn:    0.0000    constr:    0.0000
     atom:   12    charge:    1.8178    magn:    0.0000    constr:    0.0000
     atom:   13    charge:    1.8284    magn:    0.0000    constr:    0.0000
     atom:   14    charge:    1.8238    magn:    0.0000    constr:    0.0000
     atom:   15    charge:    1.8302    magn:    0.0000    constr:    0.0000
     atom:   16    charge:    1.8325    magn:    0.0000    constr:    0.0000
     atom:   17    charge:    1.8284    magn:    0.0000    constr:    0.0000
     atom:   18    charge:    1.8284    magn:    0.0000    constr:    0.0000
     atom:   19    charge:    1.8325    magn:    0.0000    constr:    0.0000
     atom:   20    charge:    1.8236    magn:    0.0000    constr:    0.0000
     atom:   21    charge:    1.8178    magn:    0.0000    constr:    0.0000
     atom:   22    charge:    1.8178    magn:    0.0000    constr:    0.0000
     atom:   23    charge:    1.8238    magn:    0.0000    constr:    0.0000
     atom:   24    charge:    1.8032    magn:   -0.0001    constr:    0.0000
     atom:   25    charge:    1.8284    magn:    0.0000    constr:    0.0000
     atom:   26    charge:    1.8236    magn:    0.0000    constr:    0.0000
     atom:   27    charge:    1.8178    magn:    0.0000    constr:    0.0000
     atom:   28    charge:    1.8284    magn:    0.0000    constr:    0.0000
     atom:   29    charge:    1.8325    magn:    0.0000    constr:    0.0000
     atom:   30    charge:    1.8032    magn:   -0.0001    constr:    0.0000
     atom:   31    charge:    1.8178    magn:    0.0000    constr:    0.0000
     atom:   32    charge:    1.8235    magn:    0.0000    constr:    0.0000
     atom:   33    charge:    1.8318    magn:    0.0000    constr:    0.0000
     atom:   34    charge:    1.8217    magn:    0.0000    constr:    0.0000
     atom:   35    charge:    1.8245    magn:    0.0000    constr:    0.0000
     atom:   36    charge:    1.8217    magn:    0.0000    constr:    0.0000
     atom:   37    charge:    1.8245    magn:    0.0000    constr:    0.0000
     atom:   38    charge:    1.8252    magn:    0.0000    constr:    0.0000
     atom:   39    charge:    1.8217    magn:    0.0000    constr:    0.0000
     atom:   40    charge:    1.8265    magn:    0.0000    constr:    0.0000
     atom:   41    charge:    1.8341    magn:    0.0000    constr:    0.0000
     atom:   42    charge:    1.8220    magn:    0.0000    constr:    0.0000
     atom:   43    charge:    1.8199    magn:    0.0000    constr:    0.0000
     atom:   44    charge:    1.8220    magn:    0.0000    constr:    0.0000
     atom:   45    charge:    1.8199    magn:    0.0000    constr:    0.0000
     atom:   46    charge:    1.8220    magn:    0.0000    constr:    0.0000
     atom:   47    charge:    1.8235    magn:    0.0000    constr:    0.0000
     atom:   48    charge:    1.8341    magn:    0.0000    constr:    0.0000
     atom:   49    charge:    1.8199    magn:    0.0000    constr:    0.0000
     atom:   50    charge:    1.8199    magn:    0.0000    constr:    0.0000
     atom:   51    charge:    1.8318    magn:    0.0000    constr:    0.0000
     atom:   52    charge:    1.8265    magn:    0.0000    constr:    0.0000
     atom:   53    charge:    1.8220    magn:    0.0000    constr:    0.0000
     atom:   54    charge:    1.8220    magn:    0.0000    constr:    0.0000
     atom:   55    charge:    1.8235    magn:    0.0000    constr:    0.0000
     atom:   56    charge:    1.8341    magn:    0.0000    constr:    0.0000
     atom:   57    charge:    1.8199    magn:    0.0000    constr:    0.0000
     atom:   58    charge:    1.8265    magn:    0.0000    constr:    0.0000
     atom:   59    charge:    1.8220    magn:    0.0000    constr:    0.0000
     atom:   60    charge:    1.8199    magn:    0.0000    constr:    0.0000
     atom:   61    charge:    1.8318    magn:    0.0000    constr:    0.0000
     atom:   62    charge:    1.8238    magn:    0.0000    constr:    0.0000
     atom:   63    charge:    2.9163    magn:    0.0006    constr:    0.0000

     total cpu time spent up to now is       30.9 secs

     End of self-consistent calculation

 ------ SPIN UP ------------


          k = 0.0000 0.0000 0.0000 ( 24207 PWs)   bands (ev):

    -8.5614  -6.9725  -6.2754  -6.2754  -6.1625  -6.1625  -5.8849  -4.9372
    -4.1356  -4.1356  -4.1065  -4.1065  -4.0256  -4.0256  -3.9964  -3.9395
    -3.8745  -3.8745  -3.3607  -2.9691  -2.6762  -2.6762  -2.0877  -0.3807
    -0.3807  -0.3530  -0.3204  -0.1032   0.1658   0.1658   0.2783   0.2783
     0.3514   0.5892   0.8040   0.8040   0.9639   0.9639   0.9968   1.0118
     1.0118   1.0388   1.3275   1.3275   3.0494   3.8936   3.8936   4.0220
     4.2051   4.2085   4.2085   4.2178   4.2506   4.2506   4.4088   4.4088
     4.4610   4.4610   4.5722   4.6334   4.6334   4.6365   4.6467   4.7348
     4.7348   4.8677   4.9278   4.9278   5.0410   5.2002   5.2002   5.2602
     5.3206   5.3206   5.3594   5.3928   5.3928   6.0033   6.0033   6.0275
     6.5913   6.5913   6.7044   6.9692   7.0101   7.0101   7.5095   8.2969
     8.2969   8.3641   8.4377   8.4377   8.6159   8.6159   8.7687   8.7848
     8.7848   8.7852   8.8399   8.8399   8.8707   9.2286   9.2351   9.2351
     9.6580   9.6580   9.8616   9.8728   9.8728   9.8824   9.9082   9.9386
     9.9386   9.9416   9.9681   9.9681  10.0699  10.0699  10.2230  10.2230
    10.2857  11.0544  12.2553  12.4393  12.4393  13.9024  15.2992  15.2992
    17.3106  17.3349  17.3349  17.4970  17.5188  17.5188  17.8166  17.8779
    17.8779  17.9648  17.9648  18.3434  18.8944  18.8944  18.9256  20.6321
    20.7606  20.7606  20.8032  20.8867  20.8868  20.9642  20.9642  20.9991

     occupation numbers 
     1.0000   1.0000   1.0000   1.0000   1.0000   1.0000   1.0000   1.0000
     1.0000   1.0000   1.0000   1.0000   1.0000   1.0000   1.0000   1.0000
     1.0000   1.0000   1.0000   1.0000   1.0000   1.0000   1.0000   1.0000
     1.0000   1.0000   1.0000   1.0000   1.0000   1.0000   1.0000   1.0000
     1.0000   1.0000   1.0000   1.0000   1.0000   1.0000   1.0000   1.0000
     1.0000   1.0000   1.0000   1.0000   1.0000   1.0000   1.0000   1.0000
     1.0000   1.0000   1.0000   1.0000   1.0000   1.0000   1.0000   1.0000
     1.0000   1.0000   1.0000   1.0000   1.0000   1.0000   1.0000   1.0000
     1.0000   1.0000   1.0000   1.0000   1.0000   1.0000   1.0000   1.0000
     1.0000   1.0000   1.0000   1.0000   1.0000   1.0000   1.0000   1.0000
     1.0000   1.0000   1.0000   1.0000   1.0000   1.0000   1.0000   1.0000
     1.0000   1.0000   1.0000   1.0000   1.0000   1.0000   1.0000   1.0000
     1.0000   1.0000   1.0000   1.0000   1.0000   1.0000   1.0000   1.0000
     1.0000   1.0000   1.0000   1.0000   1.0000   1.0000   1.0000   1.0000
     1.0000   1.0000   1.0000   1.0000   1.0000   1.0000   1.0000   1.0000
     1.0000   1.0000   1.0000   1.0000   1.0000   1.0000   0.0000   0.0000
     0.0000   0.0000   0.0000   0.0000   0.0000   0.0000   0.0000   0.0000
     0.0000   0.0000   0.0000   0.0000   0.0000   0.0000   0.0000   0.0000
     0.0000   0.0000   0.0000   0.0000   0.0000   0.0000   0.0000   0.0000

          k = 0.0000 0.0000 0.3333 ( 24280 PWs)   bands (ev):

    -8.3324  -7.5623  -6.5724  -6.0301  -5.9222  -5.8174  -5.4927  -5.2893
    -5.1667  -4.9766  -4.5115  -4.1266  -3.8027  -3.7905  -3.6812  -3.4409
    -3.1983  -3.1486  -2.9258  -2.6019  -2.5009  -2.3807  -2.3200  -1.7715
    -0.8392  -0.6889  -0.5778  -0.3398   0.1746   0.2601   0.3685   0.4051
     0.4770   0.5618   0.5748   0.6631   0.7257   0.7435   0.9881   1.4778
     1.9870   2.0143   2.1586   2.2282   2.4210   2.4819   2.4888   2.7489
     2.9480   3.0031   3.1680   3.1751   3.8931   3.9692   4.0561   4.0681
     4.2966   4.3695   4.5086   4.5542   5.0773   5.1074   5.1422   5.2065
     5.2130   5.5891   5.6157   5.7163   5.7517   6.0659   6.1089   6.1876
     6.1928   6.3260   6.3963   6.4593   6.5108   6.6170   6.6250   6.7469
     6.7675   6.8873   6.9113   6.9380   7.1488   7.1582   7.1832   7.2680
     7.4116   7.4805   7.6759   7.7741   7.8255   8.0590   8.1418   8.2802
     8.3056   8.4466   8.6740   8.7154   8.7700   9.0989   9.1981   9.3464
     9.3815   9.6277   9.6595   9.7129   9.7908   9.9225   9.9347   9.9607
     9.9672  10.0248  10.1100  10.1101  10.1846  10.2674  10.2687  10.3607
    10.3721  11.3697  11.7132  11.7186  12.0325  13.6361  14.9893  15.1627
    17.1896  17.3006  17.9542  18.3242  18.3551  18.4926  18.5056  18.6109
    18.8237  18.8311  18.9710  19.0805  19.2097  19.8312  19.8617  20.5027
    20.6637  20.6892  20.7860  20.7944  20.8266  20.8723  20.9089  20.9414

     occupation numbers 
     1.0000   1.0000   1.0000   1.0000   1.0000   1.0000   1.0000   1.0000
     1.0000   1.0000   1.0000   1.0000   1.0000   1.0000   1.0000   1.0000
     1.0000   1.0000   1.0000   1.0000   1.0000   1.0000   1.0000   1.0000
     1.0000   1.0000   1.0000   1.0000   1.0000   1.0000   1.0000   1.0000
     1.0000   1.0000   1.0000   1.0000   1.0000   1.0000   1.0000   1.0000
     1.0000   1.0000   1.0000   1.0000   1.0000   1.0000   1.0000   1.0000
     1.0000   1.0000   1.0000   1.0000   1.0000   1.0000   1.0000   1.0000
     1.0000   1.0000   1.0000   1.0000   1.0000   1.0000   1.0000   1.0000
     1.0000   1.0000   1.0000   1.0000   1.0000   1.0000   1.0000   1.0000
     1.0000   1.0000   1.0000   1.0000   1.0000   1.0000   1.0000   1.0000
     1.0000   1.0000   1.0000   1.0000   1.0000   1.0000   1.0000   1.0000
     1.0000   1.0000   1.0000   1.0000   1.0000   1.0000   1.0000   1.0000
     1.0000   1.0000   1.0000   1.0000   1.0000   1.0000   1.0000   1.0000
     1.0000   1.0000   1.0000   1.0000   1.0000   1.0000   1.0000   1.0000
     1.0000   1.0000   1.0000   1.0000   1.0000   1.0000   1.0000   1.0000
     1.0000   1.0000   1.0000   1.0000   1.0000   1.0000   1.0000   0.0000
     0.0000   0.0000   0.0000   0.0000   0.0000   0.0000   0.0000   0.0000
     0.0000   0.0000   0.0000   0.0000   0.0000   0.0000   0.0000   0.0000
     0.0000   0.0000   0.0000   0.0000   0.0000   0.0000   0.0000   0.0000

          k = 0.0000 0.3333 0.3333 ( 24236 PWs)   bands (ev):

    -8.1187  -7.3862  -7.2241  -6.5709  -5.9571  -5.6644  -5.3294  -5.0056
    -4.9901  -4.8415  -4.4913  -4.2532  -4.2177  -3.9343  -3.5356  -3.5066
    -2.7719  -2.3702  -2.3285  -2.3166  -2.1956  -2.1864  -2.0425  -1.8806
    -1.4865  -1.3153  -1.0918  -0.9170  -0.5357  -0.0251   0.0617   0.1313
     0.1822   0.4823   0.6911   1.1896   1.2072   1.3160   1.3861   1.3997
     1.4539   1.4627   1.9472   2.0648   2.1373   2.4056   2.7279   2.8251
     2.9732   3.5139   3.6545   3.7012   3.7800   3.8188   3.9744   4.0454
     4.1259   4.5511   4.6774   4.8252   5.0386   5.0462   5.1452   5.3005
     5.3452   5.5927   5.6557   5.6918   5.7502   5.9757   6.0292   6.0795
     6.1439   6.2371   6.2787   6.4906   6.5462   6.6035   6.6575   6.8587
     6.9198   6.9504   7.0443   7.0490   7.2320   7.2920   7.4987   7.7059
     7.9372   7.9478   8.0733   8.0978   8.1204   8.2256   8.2660   8.3379
     8.3485   8.4062   8.5344   8.6422   8.6985   8.7051   8.8432   8.8982
     9.0812   9.2047   9.2424   9.3128   9.4700   9.4794   9.5771   9.6407
     9.7084   9.7911   9.9099  10.0459  10.0534  10.1318  10.4401  10.7580
    11.0158  11.2134  11.5491  11.8573  12.2308  13.4382  14.9231  15.2286
    18.0851  18.1938  18.2251  18.3053  18.3613  18.8353  18.8546  19.0002
    19.1810  19.2286  19.4413  19.4794  19.6996  19.8188  19.9721  20.0217
    20.1981  20.4502  20.4818  20.5050  20.5654  20.6014  20.6146  20.6532

     occupation numbers 
     1.0000   1.0000   1.0000   1.0000   1.0000   1.0000   1.0000   1.0000
     1.0000   1.0000   1.0000   1.0000   1.0000   1.0000   1.0000   1.0000
     1.0000   1.0000   1.0000   1.0000   1.0000   1.0000   1.0000   1.0000
     1.0000   1.0000   1.0000   1.0000   1.0000   1.0000   1.0000   1.0000
     1.0000   1.0000   1.0000   1.0000   1.0000   1.0000   1.0000   1.0000
     1.0000   1.0000   1.0000   1.0000   1.0000   1.0000   1.0000   1.0000
     1.0000   1.0000   1.0000   1.0000   1.0000   1.0000   1.0000   1.0000
     1.0000   1.0000   1.0000   1.0000   1.0000   1.0000   1.0000   1.0000
     1.0000   1.0000   1.0000   1.0000   1.0000   1.0000   1.0000   1.0000
     1.0000   1.0000   1.0000   1.0000   1.0000   1.0000   1.0000   1.0000
     1.0000   1.0000   1.0000   1.0000   1.0000   1.0000   1.0000   1.0000
     1.0000   1.0000   1.0000   1.0000   1.0000   1.0000   1.0000   1.0000
     1.0000   1.0000   1.0000   1.0000   1.0000   1.0000   1.0000   1.0000
     1.0000   1.0000   1.0000   1.0000   1.0000   1.0000   1.0000   1.0000
     1.0000   1.0000   1.0000   1.0000   1.0000   1.0000   1.0000   1.0000
     1.0000   1.0000   1.0000   1.0000   1.0000   1.0000   1.0000   0.0000
     0.0000   0.0000   0.0000   0.0000   0.0000   0.0000   0.0000   0.0000
     0.0000   0.0000   0.0000   0.0000   0.0000   0.0000   0.0000   0.0000
     0.0000   0.0000   0.0000   0.0000   0.0000   0.0000   0.0000   0.0000

          k = 0.3333 0.3333 0.3333 ( 24303 PWs)   bands (ev):

    -7.9253  -7.2146  -6.9758  -6.9758  -6.2939  -6.2178  -6.2178  -5.4515
    -4.1986  -4.0276  -4.0276  -3.5267  -3.3830  -3.3830  -3.3227  -3.3227
    -3.2930  -2.9011  -2.6680  -2.6680  -1.9448  -1.9049  -1.9049  -1.5356
    -1.4488  -1.4488  -1.4009  -1.4009  -1.3269  -1.2201  -1.2201   0.0723
     0.8445   0.8445   0.9795   0.9944   0.9944   1.3054   1.8407   1.8407
     1.8737   1.9085   2.0076   2.0076   2.5984   2.5984   2.6005   2.7062
     2.7348   2.7348   3.1465   3.1465   3.5394   4.0807   4.2932   4.2932
     4.8094   4.9272   4.9272   4.9641   5.0911   5.0911   5.1525   5.3088
     5.3088   5.3966   5.5115   5.5115   5.5787   5.5787   5.6280   6.3864
     6.7253   6.7253   6.9646   7.0025   7.0025   7.0064   7.0952   7.0952
     7.1982   7.1982   7.2524   7.2527   7.2665   7.2665   7.3678   7.3678
     7.3802   7.4978   7.7295   7.7295   7.9229   7.9229   7.9555   8.0041
     8.1875   8.1875   8.2910   8.3026   8.3026   8.4414   8.4511   8.4511
     8.6848   8.6848   8.8582   9.0757   9.1087   9.5408   9.5408   9.7896
     9.7896  10.4894  10.4894  10.5152  10.5821  10.9547  10.9547  11.2624
    11.2624  11.3056  11.4840  11.6682  11.6682  13.3511  15.2220  15.2220
    18.1589  18.2436  18.2436  18.4708  18.6415  18.6415  19.2511  19.3988
    19.3988  19.5464  19.5464  19.5743  19.6305  19.6305  19.6824  19.7422
    19.7422  19.8629  19.9211  19.9212  20.0068  20.0072  20.0264  20.2142

     occupation numbers 
     1.0000   1.0000   1.0000   1.0000   1.0000   1.0000   1.0000   1.0000
     1.0000   1.0000   1.0000   1.0000   1.0000   1.0000   1.0000   1.0000
     1.0000   1.0000   1.0000   1.0000   1.0000   1.0000   1.0000   1.0000
     1.0000   1.0000   1.0000   1.0000   1.0000   1.0000   1.0000   1.0000
     1.0000   1.0000   1.0000   1.0000   1.0000   1.0000   1.0000   1.0000
     1.0000   1.0000   1.0000   1.0000   1.0000   1.0000   1.0000   1.0000
     1.0000   1.0000   1.0000   1.0000   1.0000   1.0000   1.0000   1.0000
     1.0000   1.0000   1.0000   1.0000   1.0000   1.0000   1.0000   1.0000
     1.0000   1.0000   1.0000   1.0000   1.0000   1.0000   1.0000   1.0000
     1.0000   1.0000   1.0000   1.0000   1.0000   1.0000   1.0000   1.0000
     1.0000   1.0000   1.0000   1.0000   1.0000   1.0000   1.0000   1.0000
     1.0000   1.0000   1.0000   1.0000   1.0000   1.0000   1.0000   1.0000
     1.0000   1.0000   1.0000   1.0000   1.0000   1.0000   1.0000   1.0000
     1.0000   1.0000   1.0000   1.0000   1.0000   1.0000   1.0000   1.0000
     1.0000   1.0000   1.0000   1.0000   1.0000   1.0000   1.0000   1.0000
     1.0000   1.0000   1.0000   1.0000   1.0000   1.0000   0.0000   0.0000
     0.0000   0.0000   0.0000   0.0000   0.0000   0.0000   0.0000   0.0000
     0.0000   0.0000   0.0000   0.0000   0.0000   0.0000   0.0000   0.0000
     0.0000   0.0000   0.0000   0.0000   0.0000   0.0000   0.0000   0.0000

          k =-0.3333 0.0000 0.3333 ( 24236 PWs)   bands (ev):

    -8.1048  -7.5027  -7.0997  -6.5572  -5.9966  -5.6702  -5.3656  -5.0288
    -4.9275  -4.7615  -4.5129  -4.2937  -4.2250  -4.0408  -3.5850  -3.3298
    -2.7644  -2.4026  -2.3605  -2.2889  -2.1923  -2.1661  -2.0955  -1.6555
    -1.6364  -1.3095  -1.1125  -0.9854  -0.5877   0.0107   0.0775   0.1182
     0.2724   0.4952   0.8835   1.0565   1.2096   1.2259   1.2536   1.3984
     1.4840   1.5808   1.8659   1.9073   2.1373   2.5911   2.6822   2.8668
     2.9505   3.5060   3.6556   3.7131   3.7885   3.8928   4.0267   4.1157
     4.1776   4.3981   4.6229   4.8123   4.9692   5.0209   5.1859   5.2514
     5.4225   5.5682   5.6483   5.6904   5.7974   6.0364   6.0837   6.1352
     6.1794   6.2220   6.2720   6.4356   6.4771   6.6199   6.6424   6.8181
     6.8921   6.9669   7.0151   7.0974   7.2337   7.3902   7.5077   7.6798
     7.8512   7.8954   7.9688   8.0837   8.1790   8.2144   8.2600   8.2867
     8.3768   8.4367   8.5515   8.5933   8.7372   8.7519   8.8948   8.9582
     9.0789   9.1399   9.2328   9.3230   9.4522   9.4978   9.5197   9.6610
     9.7349   9.7522   9.9417  10.0294  10.0743  10.0950  10.5081  10.8821
    10.9808  11.1557  11.5077  11.7634  12.2369  13.6936  14.8381  15.1217
    18.0615  18.2025  18.2636  18.3139  18.3674  18.8025  18.9232  19.0968
    19.1530  19.2806  19.3543  19.4890  19.6976  19.8418  19.8938  20.0311
    20.2496  20.3664  20.4300  20.5225  20.5596  20.5980  20.6390  20.6797

     occupation numbers 
     1.0000   1.0000   1.0000   1.0000   1.0000   1.0000   1.0000   1.0000
     1.0000   1.0000   1.0000   1.0000   1.0000   1.0000   1.0000   1.0000
     1.0000   1.0000   1.0000   1.0000   1.0000   1.0000   1.0000   1.0000
     1.0000   1.0000   1.0000   1.0000   1.0000   1.0000   1.0000   1.0000
     1.0000   1.0000   1.0000   1.0000   1.0000   1.0000   1.0000   1.0000
     1.0000   1.0000   1.0000   1.0000   1.0000   1.0000   1.0000   1.0000
     1.0000   1.0000   1.0000   1.0000   1.0000   1.0000   1.0000   1.0000
     1.0000   1.0000   1.0000   1.0000   1.0000   1.0000   1.0000   1.0000
     1.0000   1.0000   1.0000   1.0000   1.0000   1.0000   1.0000   1.0000
     1.0000   1.0000   1.0000   1.0000   1.0000   1.0000   1.0000   1.0000
     1.0000   1.0000   1.0000   1.0000   1.0000   1.0000   1.0000   1.0000
     1.0000   1.0000   1.0000   1.0000   1.0000   1.0000   1.0000   1.0000
     1.0000   1.0000   1.0000   1.0000   1.0000   1.0000   1.0000   1.0000
     1.0000   1.0000   1.0000   1.0000   1.0000   1.0000   1.0000   1.0000
     1.0000   1.0000   1.0000   1.0000   1.0000   1.0000   1.0000   1.0000
     1.0000   1.0000   1.0000   1.0000   1.0000   1.0000   1.0000   0.5000
     0.0000   0.0000   0.0000   0.0000   0.0000   0.0000   0.0000   0.0000
     0.0000   0.0000   0.0000   0.0000   0.0000   0.0000   0.0000   0.0000
     0.0000   0.0000   0.0000   0.0000   0.0000   0.0000   0.0000   0.0000

          k = 0.3333-0.3333 0.3333 ( 24303 PWs)   bands (ev):

    -7.8989  -7.3549  -6.9762  -6.8234  -6.4651  -6.2167  -5.9817  -5.4895
    -4.4841  -4.0294  -3.9337  -3.7068  -3.4083  -3.3587  -3.3126  -3.2166
    -3.0739  -2.8847  -2.6874  -2.4242  -2.0614  -1.8844  -1.8508  -1.7155
    -1.4862  -1.4596  -1.4225  -1.3556  -1.3549  -1.2604  -1.1737  -0.0514
     0.7568   0.8792   0.9636   0.9985   1.0640   1.4214   1.7443   1.7822
     1.8596   1.9448   2.0450   2.2430   2.5797   2.6160   2.6876   2.7054
     2.7238   2.7812   2.9221   3.1789   3.5114   3.9958   4.2380   4.3132
     4.8255   4.8283   4.8581   5.0125   5.0268   5.0706   5.1979   5.2574
     5.2837   5.4393   5.4445   5.5037   5.6855   5.7756   5.8301   6.4628
     6.7019   6.7599   6.9238   6.9309   6.9710   7.0521   7.0730   7.0967
     7.1663   7.1891   7.2350   7.2656   7.2708   7.3203   7.3343   7.3553
     7.3798   7.4629   7.7381   7.7440   7.8280   7.9290   7.9532   7.9634
     8.1327   8.1581   8.2715   8.2881   8.3748   8.3918   8.4123   8.4910
     8.7026   8.7327   8.9690   8.9862   9.1207   9.5332   9.5933   9.6975
     9.8853  10.4061  10.5155  10.5233  10.5560  10.9337  10.9456  11.2061
    11.2274  11.2961  11.4535  11.7238  11.7387  13.7188  14.9063  15.2107
    18.1237  18.2591  18.3414  18.5437  18.6578  18.7259  19.2111  19.3961
    19.4339  19.5110  19.5349  19.5532  19.6089  19.6293  19.6623  19.7293
    19.7429  19.7943  19.9173  19.9239  19.9921  19.9982  20.0435  20.1546

     occupation numbers 
     1.0000   1.0000   1.0000   1.0000   1.0000   1.0000   1.0000   1.0000
     1.0000   1.0000   1.0000   1.0000   1.0000   1.0000   1.0000   1.0000
     1.0000   1.0000   1.0000   1.0000   1.0000   1.0000   1.0000   1.0000
     1.0000   1.0000   1.0000   1.0000   1.0000   1.0000   1.0000   1.0000
     1.0000   1.0000   1.0000   1.0000   1.0000   1.0000   1.0000   1.0000
     1.0000   1.0000   1.0000   1.0000   1.0000   1.0000   1.0000   1.0000
     1.0000   1.0000   1.0000   1.0000   1.0000   1.0000   1.0000   1.0000
     1.0000   1.0000   1.0000   1.0000   1.0000   1.0000   1.0000   1.0000
     1.0000   1.0000   1.0000   1.0000   1.0000   1.0000   1.0000   1.0000
     1.0000   1.0000   1.0000   1.0000   1.0000   1.0000   1.0000   1.0000
     1.0000   1.0000   1.0000   1.0000   1.0000   1.0000   1.0000   1.0000
     1.0000   1.0000   1.0000   1.0000   1.0000   1.0000   1.0000   1.0000
     1.0000   1.0000   1.0000   1.0000   1.0000   1.0000   1.0000   1.0000
     1.0000   1.0000   1.0000   1.0000   1.0000   1.0000   1.0000   1.0000
     1.0000   1.0000   1.0000   1.0000   1.0000   1.0000   1.0000   1.0000
     1.0000   1.0000   1.0000   1.0000   1.0000   1.0000   1.0000   0.0000
     0.0000   0.0000   0.0000   0.0000   0.0000   0.0000   0.0000   0.0000
     0.0000   0.0000   0.0000   0.0000   0.0000   0.0000   0.0000   0.0000
     0.0000   0.0000   0.0000   0.0000   0.0000   0.0000   0.0000   0.0000

 ------ SPIN DOWN ----------


          k = 0.0000 0.0000 0.0000 ( 24207 PWs)   bands (ev):

    -8.5615  -6.9720  -6.2755  -6.2755  -6.1627  -6.1627  -5.8850  -4.9369
    -4.1357  -4.1357  -4.1067  -4.1067  -4.0257  -4.0257  -3.9965  -3.9396
    -3.8746  -3.8746  -3.3608  -2.9691  -2.6764  -2.6764  -2.0876  -0.3808
    -0.3808  -0.3532  -0.3205  -0.1030   0.1657   0.1657   0.2782   0.2782
     0.3513   0.5893   0.8039   0.8039   0.9638   0.9638   0.9968   1.0117
     1.0117   1.0388   1.3275   1.3275   3.0494   3.8937   3.8937   4.0220
     4.2051   4.2085   4.2085   4.2178   4.2505   4.2505   4.4087   4.4087
     4.4609   4.4609   4.5721   4.6333   4.6333   4.6364   4.6466   4.7347
     4.7347   4.8677   4.9277   4.9277   5.0410   5.2002   5.2002   5.2601
     5.3205   5.3205   5.3593   5.3928   5.3928   6.0032   6.0032   6.0274
     6.5913   6.5913   6.7043   6.9692   7.0101   7.0101   7.5095   8.2971
     8.2971   8.3642   8.4377   8.4377   8.6159   8.6159   8.7686   8.7847
     8.7847   8.7853   8.8399   8.8399   8.8707   9.2286   9.2350   9.2350
     9.6580   9.6580   9.8616   9.8728   9.8728   9.8824   9.9082   9.9386
     9.9386   9.9416   9.9681   9.9681  10.0699  10.0699  10.2231  10.2231
    10.2857  11.0548  12.2554  12.4394  12.4394  13.9033  15.2992  15.2992
    17.3106  17.3349  17.3349  17.4969  17.5188  17.5188  17.8167  17.8778
    17.8778  17.9648  17.9648  18.3432  18.8945  18.8945  18.9257  20.6323
    20.7605  20.7605  20.8033  20.8868  20.8868  20.9643  20.9644  20.9987

     occupation numbers 
     1.0000   1.0000   1.0000   1.0000   1.0000   1.0000   1.0000   1.0000
     1.0000   1.0000   1.0000   1.0000   1.0000   1.0000   1.0000   1.0000
     1.0000   1.0000   1.0000   1.0000   1.0000   1.0000   1.0000   1.0000
     1.0000   1.0000   1.0000   1.0000   1.0000   1.0000   1.0000   1.0000
     1.0000   1.0000   1.0000   1.0000   1.0000   1.0000   1.0000   1.0000
     1.0000   1.0000   1.0000   1.0000   1.0000   1.0000   1.0000   1.0000
     1.0000   1.0000   1.0000   1.0000   1.0000   1.0000   1.0000   1.0000
     1.0000   1.0000   1.0000   1.0000   1.0000   1.0000   1.0000   1.0000
     1.0000   1.0000   1.0000   1.0000   1.0000   1.0000   1.0000   1.0000
     1.0000   1.0000   1.0000   1.0000   1.0000   1.0000   1.0000   1.0000
     1.0000   1.0000   1.0000   1.0000   1.0000   1.0000   1.0000   1.0000
     1.0000   1.0000   1.0000   1.0000   1.0000   1.0000   1.0000   1.0000
     1.0000   1.0000   1.0000   1.0000   1.0000   1.0000   1.0000   1.0000
     1.0000   1.0000   1.0000   1.0000   1.0000   1.0000   1.0000   1.0000
     1.0000   1.0000   1.0000   1.0000   1.0000   1.0000   1.0000   1.0000
     1.0000   1.0000   1.0000   1.0000   1.0000   1.0000   0.0000   0.0000
     0.0000   0.0000   0.0000   0.0000   0.0000   0.0000   0.0000   0.0000
     0.0000   0.0000   0.0000   0.0000   0.0000   0.0000   0.0000   0.0000
     0.0000   0.0000   0.0000   0.0000   0.0000   0.0000   0.0000   0.0000

          k = 0.0000 0.0000 0.3333 ( 24280 PWs)   bands (ev):

    -8.3324  -7.5623  -6.5720  -6.0303  -5.9223  -5.8176  -5.4927  -5.2895
    -5.1669  -4.9767  -4.5116  -4.1265  -3.8028  -3.7907  -3.6813  -3.4409
    -3.1984  -3.1487  -2.9259  -2.6020  -2.5010  -2.3808  -2.3201  -1.7715
    -0.8392  -0.6890  -0.5779  -0.3398   0.1746   0.2599   0.3684   0.4050
     0.4769   0.5618   0.5747   0.6630   0.7257   0.7434   0.9881   1.4777
     1.9870   2.0142   2.1585   2.2282   2.4209   2.4818   2.4887   2.7488
     2.9480   3.0030   3.1680   3.1750   3.8930   3.9692   4.0560   4.0680
     4.2965   4.3694   4.5085   4.5541   5.0773   5.1074   5.1421   5.2065
     5.2129   5.5891   5.6157   5.7163   5.7517   6.0659   6.1089   6.1876
     6.1927   6.3259   6.3963   6.4592   6.5108   6.6169   6.6249   6.7468
     6.7675   6.8873   6.9113   6.9380   7.1488   7.1582   7.1832   7.2680
     7.4116   7.4805   7.6759   7.7742   7.8255   8.0589   8.1418   8.2802
     8.3056   8.4466   8.6740   8.7154   8.7699   9.0989   9.1981   9.3464
     9.3816   9.6277   9.6596   9.7129   9.7908   9.9225   9.9347   9.9606
     9.9673  10.0248  10.1100  10.1101  10.1846  10.2675  10.2688  10.3607
    10.3721  11.3701  11.7132  11.7186  12.0326  13.6369  14.9893  15.1626
    17.1895  17.3005  17.9543  18.3242  18.3551  18.4926  18.5057  18.6109
    18.8238  18.8310  18.9710  19.0803  19.2097  19.8314  19.8618  20.5029
    20.6638  20.6892  20.7861  20.7945  20.8266  20.8724  20.9089  20.9415

     occupation numbers 
     1.0000   1.0000   1.0000   1.0000   1.0000   1.0000   1.0000   1.0000
     1.0000   1.0000   1.0000   1.0000   1.0000   1.0000   1.0000   1.0000
     1.0000   1.0000   1.0000   1.0000   1.0000   1.0000   1.0000   1.0000
     1.0000   1.0000   1.0000   1.0000   1.0000   1.0000   1.0000   1.0000
     1.0000   1.0000   1.0000   1.0000   1.0000   1.0000   1.0000   1.0000
     1.0000   1.0000   1.0000   1.0000   1.0000   1.0000   1.0000   1.0000
     1.0000   1.0000   1.0000   1.0000   1.0000   1.0000   1.0000   1.0000
     1.0000   1.0000   1.0000   1.0000   1.0000   1.0000   1.0000   1.0000
     1.0000   1.0000   1.0000   1.0000   1.0000   1.0000   1.0000   1.0000
     1.0000   1.0000   1.0000   1.0000   1.0000   1.0000   1.0000   1.0000
     1.0000   1.0000   1.0000   1.0000   1.0000   1.0000   1.0000   1.0000
     1.0000   1.0000   1.0000   1.0000   1.0000   1.0000   1.0000   1.0000
     1.0000   1.0000   1.0000   1.0000   1.0000   1.0000   1.0000   1.0000
     1.0000   1.0000   1.0000   1.0000   1.0000   1.0000   1.0000   1.0000
     1.0000   1.0000   1.0000   1.0000   1.0000   1.0000   1.0000   1.0000
     1.0000   1.0000   1.0000   1.0000   1.0000   1.0000   1.0000   0.0000
     0.0000   0.0000   0.0000   0.0000   0.0000   0.0000   0.0000   0.0000
     0.0000   0.0000   0.0000   0.0000   0.0000   0.0000   0.0000   0.0000
     0.0000   0.0000   0.0000   0.0000   0.0000   0.0000   0.0000   0.0000

          k = 0.0000 0.3333 0.3333 ( 24236 PWs)   bands (ev):

    -8.1187  -7.3861  -7.2243  -6.5708  -5.9570  -5.6645  -5.3293  -5.0058
    -4.9903  -4.8417  -4.4913  -4.2534  -4.2179  -3.9345  -3.5356  -3.5067
    -2.7718  -2.3703  -2.3286  -2.3168  -2.1957  -2.1865  -2.0426  -1.8807
    -1.4866  -1.3154  -1.0918  -0.9171  -0.5358  -0.0251   0.0616   0.1312
     0.1820   0.4822   0.6911   1.1895   1.2071   1.3159   1.3860   1.3995
     1.4539   1.4626   1.9472   2.0647   2.1372   2.4056   2.7278   2.8250
     2.9732   3.5139   3.6544   3.7011   3.7799   3.8188   3.9743   4.0454
     4.1258   4.5510   4.6773   4.8252   5.0385   5.0462   5.1452   5.3005
     5.3452   5.5927   5.6556   5.6917   5.7502   5.9757   6.0292   6.0795
     6.1439   6.2370   6.2787   6.4906   6.5462   6.6034   6.6574   6.8587
     6.9198   6.9504   7.0443   7.0490   7.2319   7.2920   7.4987   7.7059
     7.9372   7.9478   8.0733   8.0977   8.1204   8.2256   8.2660   8.3380
     8.3484   8.4062   8.5343   8.6422   8.6985   8.7052   8.8433   8.8982
     9.0812   9.2048   9.2424   9.3128   9.4700   9.4793   9.5772   9.6407
     9.7085   9.7911   9.9100  10.0460  10.0534  10.1318  10.4402  10.7581
    11.0158  11.2134  11.5491  11.8576  12.2309  13.4389  14.9231  15.2286
    18.0851  18.1937  18.2251  18.3052  18.3613  18.8354  18.8546  19.0003
    19.1811  19.2287  19.4413  19.4793  19.6996  19.8188  19.9720  20.0219
    20.1983  20.4503  20.4818  20.5052  20.5655  20.6015  20.6147  20.6533

     occupation numbers 
     1.0000   1.0000   1.0000   1.0000   1.0000   1.0000   1.0000   1.0000
     1.0000   1.0000   1.0000   1.0000   1.0000   1.0000   1.0000   1.0000
     1.0000   1.0000   1.0000   1.0000   1.0000   1.0000   1.0000   1.0000
     1.0000   1.0000   1.0000   1.0000   1.0000   1.0000   1.0000   1.0000
     1.0000   1.0000   1.0000   1.0000   1.0000   1.0000   1.0000   1.0000
     1.0000   1.0000   1.0000   1.0000   1.0000   1.0000   1.0000   1.0000
     1.0000   1.0000   1.0000   1.0000   1.0000   1.0000   1.0000   1.0000
     1.0000   1.0000   1.0000   1.0000   1.0000   1.0000   1.0000   1.0000
     1.0000   1.0000   1.0000   1.0000   1.0000   1.0000   1.0000   1.0000
     1.0000   1.0000   1.0000   1.0000   1.0000   1.0000   1.0000   1.0000
     1.0000   1.0000   1.0000   1.0000   1.0000   1.0000   1.0000   1.0000
     1.0000   1.0000   1.0000   1.0000   1.0000   1.0000   1.0000   1.0000
     1.0000   1.0000   1.0000   1.0000   1.0000   1.0000   1.0000   1.0000
     1.0000   1.0000   1.0000   1.0000   1.0000   1.0000   1.0000   1.0000
     1.0000   1.0000   1.0000   1.0000   1.0000   1.0000   1.0000   1.0000
     1.0000   1.0000   1.0000   1.0000   1.0000   1.0000   1.0000   0.0000
     0.0000   0.0000   0.0000   0.0000   0.0000   0.0000   0.0000   0.0000
     0.0000   0.0000   0.0000   0.0000   0.0000   0.0000   0.0000   0.0000
     0.0000   0.0000   0.0000   0.0000   0.0000   0.0000   0.0000   0.0000

          k = 0.3333 0.3333 0.3333 ( 24303 PWs)   bands (ev):

    -7.9252  -7.2144  -6.9760  -6.9760  -6.2939  -6.2179  -6.2179  -5.4515
    -4.1983  -4.0277  -4.0277  -3.5265  -3.3832  -3.3832  -3.3229  -3.3229
    -3.2931  -2.9012  -2.6681  -2.6681  -1.9449  -1.9050  -1.9050  -1.5356
    -1.4490  -1.4490  -1.4010  -1.4010  -1.3270  -1.2201  -1.2201   0.0723
     0.8444   0.8444   0.9795   0.9943   0.9943   1.3053   1.8406   1.8406
     1.8736   1.9085   2.0075   2.0075   2.5983   2.5983   2.6004   2.7062
     2.7347   2.7347   3.1464   3.1464   3.5393   4.0806   4.2932   4.2932
     4.8094   4.9272   4.9272   4.9640   5.0910   5.0910   5.1524   5.3088
     5.3088   5.3966   5.5113   5.5113   5.5788   5.5788   5.6279   6.3864
     6.7255   6.7255   6.9646   7.0024   7.0024   7.0064   7.0951   7.0951
     7.1982   7.1982   7.2524   7.2526   7.2664   7.2664   7.3677   7.3677
     7.3801   7.4978   7.7295   7.7295   7.9229   7.9229   7.9555   8.0040
     8.1875   8.1875   8.2910   8.3026   8.3026   8.4414   8.4511   8.4511
     8.6848   8.6848   8.8583   9.0757   9.1087   9.5408   9.5408   9.7897
     9.7897  10.4894  10.4894  10.5152  10.5822  10.9548  10.9548  11.2624
    11.2624  11.3057  11.4842  11.6682  11.6682  13.3520  15.2219  15.2219
    18.1590  18.2435  18.2435  18.4708  18.6414  18.6414  19.2512  19.3988
    19.3988  19.5464  19.5464  19.5743  19.6305  19.6305  19.6823  19.7422
    19.7422  19.8628  19.9212  19.9213  20.0068  20.0072  20.0265  20.1681

     occupation numbers 
     1.0000   1.0000   1.0000   1.0000   1.0000   1.0000   1.0000   1.0000
     1.0000   1.0000   1.0000   1.0000   1.0000   1.0000   1.0000   1.0000
     1.0000   1.0000   1.0000   1.0000   1.0000   1.0000   1.0000   1.0000
     1.0000   1.0000   1.0000   1.0000   1.0000   1.0000   1.0000   1.0000
     1.0000   1.0000   1.0000   1.0000   1.0000   1.0000   1.0000   1.0000
     1.0000   1.0000   1.0000   1.0000   1.0000   1.0000   1.0000   1.0000
     1.0000   1.0000   1.0000   1.0000   1.0000   1.0000   1.0000   1.0000
     1.0000   1.0000   1.0000   1.0000   1.0000   1.0000   1.0000   1.0000
     1.0000   1.0000   1.0000   1.0000   1.0000   1.0000   1.0000   1.0000
     1.0000   1.0000   1.0000   1.0000   1.0000   1.0000   1.0000   1.0000
     1.0000   1.0000   1.0000   1.0000   1.0000   1.0000   1.0000   1.0000
     1.0000   1.0000   1.0000   1.0000   1.0000   1.0000   1.0000   1.0000
     1.0000   1.0000   1.0000   1.0000   1.0000   1.0000   1.0000   1.0000
     1.0000   1.0000   1.0000   1.0000   1.0000   1.0000   1.0000   1.0000
     1.0000   1.0000   1.0000   1.0000   1.0000   1.0000   1.0000   1.0000
     1.0000   1.0000   1.0000   1.0000   1.0000   1.0000   0.0000   0.0000
     0.0000   0.0000   0.0000   0.0000   0.0000   0.0000   0.0000   0.0000
     0.0000   0.0000   0.0000   0.0000   0.0000   0.0000   0.0000   0.0000
     0.0000   0.0000   0.0000   0.0000   0.0000   0.0000   0.0000   0.0000

          k =-0.3333 0.0000 0.3333 ( 24236 PWs)   bands (ev):

    -8.1048  -7.5026  -7.0998  -6.5571  -5.9965  -5.6704  -5.3656  -5.0290
    -4.9276  -4.7616  -4.5129  -4.2939  -4.2251  -4.0409  -3.5851  -3.3299
    -2.7642  -2.4027  -2.3606  -2.2890  -2.1924  -2.1662  -2.0956  -1.6556
    -1.6365  -1.3096  -1.1125  -0.9855  -0.5877   0.0106   0.0774   0.1181
     0.2724   0.4952   0.8834   1.0565   1.2095   1.2258   1.2535   1.3983
     1.4839   1.5807   1.8659   1.9072   2.1372   2.5910   2.6821   2.8668
     2.9505   3.5060   3.6555   3.7130   3.7884   3.8927   4.0266   4.1156
     4.1776   4.3981   4.6228   4.8123   4.9691   5.0209   5.1859   5.2514
     5.4225   5.5681   5.6482   5.6903   5.7973   6.0364   6.0836   6.1351
     6.1793   6.2219   6.2720   6.4356   6.4771   6.6199   6.6423   6.8181
     6.8921   6.9669   7.0150   7.0973   7.2337   7.3902   7.5077   7.6798
     7.8512   7.8954   7.9688   8.0836   8.1789   8.2144   8.2600   8.2867
     8.3768   8.4367   8.5515   8.5933   8.7372   8.7519   8.8948   8.9582
     9.0789   9.1399   9.2328   9.3230   9.4522   9.4978   9.5197   9.6610
     9.7350   9.7522   9.9417  10.0294  10.0743  10.0950  10.5081  10.8820
    10.9810  11.1558  11.5077  11.7638  12.2369  13.6942  14.8381  15.1217
    18.0615  18.2025  18.2636  18.3139  18.3673  18.8026  18.9232  19.0968
    19.1531  19.2807  19.3543  19.4889  19.6975  19.8418  19.8938  20.0311
    20.2498  20.3664  20.4301  20.5227  20.5597  20.5981  20.6390  20.6797

     occupation numbers 
     1.0000   1.0000   1.0000   1.0000   1.0000   1.0000   1.0000   1.0000
     1.0000   1.0000   1.0000   1.0000   1.0000   1.0000   1.0000   1.0000
     1.0000   1.0000   1.0000   1.0000   1.0000   1.0000   1.0000   1.0000
     1.0000   1.0000   1.0000   1.0000   1.0000   1.0000   1.0000   1.0000
     1.0000   1.0000   1.0000   1.0000   1.0000   1.0000   1.0000   1.0000
     1.0000   1.0000   1.0000   1.0000   1.0000   1.0000   1.0000   1.0000
     1.0000   1.0000   1.0000   1.0000   1.0000   1.0000   1.0000   1.0000
     1.0000   1.0000   1.0000   1.0000   1.0000   1.0000   1.0000   1.0000
     1.0000   1.0000   1.0000   1.0000   1.0000   1.0000   1.0000   1.0000
     1.0000   1.0000   1.0000   1.0000   1.0000   1.0000   1.0000   1.0000
     1.0000   1.0000   1.0000   1.0000   1.0000   1.0000   1.0000   1.0000
     1.0000   1.0000   1.0000   1.0000   1.0000   1.0000   1.0000   1.0000
     1.0000   1.0000   1.0000   1.0000   1.0000   1.0000   1.0000   1.0000
     1.0000   1.0000   1.0000   1.0000   1.0000   1.0000   1.0000   1.0000
     1.0000   1.0000   1.0000   1.0000   1.0000   1.0000   1.0000   1.0000
     1.0000   1.0000   1.0000   1.0000   1.0000   1.0000   1.0000   0.5000
     0.0000   0.0000   0.0000   0.0000   0.0000   0.0000   0.0000   0.0000
     0.0000   0.0000   0.0000   0.0000   0.0000   0.0000   0.0000   0.0000
     0.0000   0.0000   0.0000   0.0000   0.0000   0.0000   0.0000   0.0000

          k = 0.3333-0.3333 0.3333 ( 24303 PWs)   bands (ev):

    -7.8988  -7.3548  -6.9764  -6.8235  -6.4651  -6.2169  -5.9818  -5.4895
    -4.4839  -4.0295  -3.9338  -3.7069  -3.4085  -3.3589  -3.3127  -3.2167
    -3.0740  -2.8847  -2.6875  -2.4243  -2.0614  -1.8845  -1.8509  -1.7156
    -1.4863  -1.4598  -1.4226  -1.3557  -1.3550  -1.2605  -1.1737  -0.0514
     0.7567   0.8791   0.9635   0.9983   1.0639   1.4213   1.7442   1.7821
     1.8595   1.9447   2.0449   2.2429   2.5796   2.6160   2.6875   2.7053
     2.7237   2.7811   2.9221   3.1788   3.5113   3.9958   4.2379   4.3131
     4.8255   4.8284   4.8580   5.0125   5.0267   5.0705   5.1979   5.2574
     5.2837   5.4392   5.4444   5.5036   5.6854   5.7755   5.8301   6.4628
     6.7020   6.7600   6.9238   6.9308   6.9710   7.0521   7.0730   7.0967
     7.1663   7.1890   7.2350   7.2655   7.2707   7.3203   7.3343   7.3552
     7.3798   7.4629   7.7380   7.7440   7.8280   7.9290   7.9532   7.9634
     8.1327   8.1581   8.2714   8.2881   8.3748   8.3918   8.4123   8.4910
     8.7026   8.7326   8.9689   8.9863   9.1207   9.5332   9.5934   9.6977
     9.8853  10.4062  10.5155  10.5233  10.5561  10.9338  10.9458  11.2062
    11.2275  11.2962  11.4537  11.7238  11.7387  13.7196  14.9062  15.2106
    18.1238  18.2591  18.3413  18.5437  18.6578  18.7259  19.2112  19.3962
    19.4339  19.5109  19.5348  19.5532  19.6089  19.6292  19.6624  19.7292
    19.7429  19.7943  19.9173  19.9240  19.9921  19.9982  20.0435  20.1545

     occupation numbers 
     1.0000   1.0000   1.0000   1.0000   1.0000   1.0000   1.0000   1.0000
     1.0000   1.0000   1.0000   1.0000   1.0000   1.0000   1.0000   1.0000
     1.0000   1.0000   1.0000   1.0000   1.0000   1.0000   1.0000   1.0000
     1.0000   1.0000   1.0000   1.0000   1.0000   1.0000   1.0000   1.0000
     1.0000   1.0000   1.0000   1.0000   1.0000   1.0000   1.0000   1.0000
     1.0000   1.0000   1.0000   1.0000   1.0000   1.0000   1.0000   1.0000
     1.0000   1.0000   1.0000   1.0000   1.0000   1.0000   1.0000   1.0000
     1.0000   1.0000   1.0000   1.0000   1.0000   1.0000   1.0000   1.0000
     1.0000   1.0000   1.0000   1.0000   1.0000   1.0000   1.0000   1.0000
     1.0000   1.0000   1.0000   1.0000   1.0000   1.0000   1.0000   1.0000
     1.0000   1.0000   1.0000   1.0000   1.0000   1.0000   1.0000   1.0000
     1.0000   1.0000   1.0000   1.0000   1.0000   1.0000   1.0000   1.0000
     1.0000   1.0000   1.0000   1.0000   1.0000   1.0000   1.0000   1.0000
     1.0000   1.0000   1.0000   1.0000   1.0000   1.0000   1.0000   1.0000
     1.0000   1.0000   1.0000   1.0000   1.0000   1.0000   1.0000   1.0000
     1.0000   1.0000   1.0000   1.0000   1.0000   1.0000   1.0000   0.0000
     0.0000   0.0000   0.0000   0.0000   0.0000   0.0000   0.0000   0.0000
     0.0000   0.0000   0.0000   0.0000   0.0000   0.0000   0.0000   0.0000
     0.0000   0.0000   0.0000   0.0000   0.0000   0.0000   0.0000   0.0000

     the spin up/dw Fermi energies are    15.1236   15.1236 ev

!    total energy              =    -724.77986520 Ry
     Harris-Foulkes estimate   =    -724.77986480 Ry
     estimated scf accuracy    <       0.00000047 Ry

     The total energy is the sum of the following terms:

     one-electron contribution =     232.90961006 Ry
     hartree contribution      =      69.11760327 Ry
     xc contribution           =    -226.34028030 Ry
     ewald contribution        =    -800.46672529 Ry
     smearing contrib. (-TS)   =      -0.00007293 Ry

     total magnetization       =     0.00 Bohr mag/cell
     absolute magnetization    =     0.00 Bohr mag/cell

     convergence has been achieved in   9 iterations

     Writing output data file di.save
 
     init_run     :      1.32s CPU      1.67s WALL (       1 calls)
     electrons    :     26.81s CPU     27.18s WALL (       1 calls)

     Called by init_run:
     wfcinit      :      0.74s CPU      0.80s WALL (       1 calls)
     wfcinit:atom :      0.01s CPU      0.01s WALL (       2 calls)
     wfcinit:wfcr :      0.69s CPU      0.75s WALL (       2 calls)
     potinit      :      0.08s CPU      0.10s WALL (       1 calls)

     Called by electrons:
     c_bands      :     25.20s CPU     25.54s WALL (       9 calls)
     sum_band     :      1.10s CPU      1.11s WALL (       9 calls)
     v_of_rho     :      0.36s CPU      0.37s WALL (      10 calls)
     v_h          :      0.01s CPU      0.01s WALL (      10 calls)
     v_xc         :      0.35s CPU      0.36s WALL (      10 calls)
     mix_rho      :      0.06s CPU      0.06s WALL (       9 calls)

     Called by c_bands:
     init_us_2    :      0.18s CPU      0.18s WALL (      38 calls)
     cegterg      :     21.43s CPU     21.75s WALL (      18 calls)

     Called by sum_band:

     Called by *egterg:
     h_psi        :      8.38s CPU      8.49s WALL (     131 calls)
     g_psi        :      0.05s CPU      0.05s WALL (     111 calls)
     cdiaghg      :      9.37s CPU      9.41s WALL (     129 calls)
     cegterg:over :      1.64s CPU      1.65s WALL (     111 calls)
     cegterg:upda :      1.25s CPU      1.26s WALL (     111 calls)
     cegterg:last :      0.46s CPU      0.46s WALL (      18 calls)

     Called by h_psi:
     h_psi:pot    :      8.28s CPU      8.39s WALL (     131 calls)
     h_psi:calbec :      1.80s CPU      1.82s WALL (     131 calls)
     vloc_psi     :      4.60s CPU      4.67s WALL (     131 calls)
     add_vuspsi   :      1.88s CPU      1.90s WALL (     131 calls)

     General routines
     calbec       :      1.80s CPU      1.82s WALL (     131 calls)
     fft          :      0.11s CPU      0.31s WALL (     207 calls)
     fftw         :      4.89s CPU      4.90s WALL (   18362 calls)
 
     Parallel routines
     fft_scatter  :      1.48s CPU      1.45s WALL (   18569 calls)
 
     PWSCF        :    31.01s CPU        34.45s WALL

 
   This run was terminated on:  10:25:19  12May2020            

=------------------------------------------------------------------------------=
   JOB DONE.
=------------------------------------------------------------------------------=
