
     Program PWSCF v.6.1 (svn rev. 13369) starts on  1Jun2021 at 13:19: 9 

     This program is part of the open-source Quantum ESPRESSO suite
     for quantum simulation of materials; please cite
         "P. Giannozzi et al., J. Phys.:Condens. Matter 21 395502 (2009);
          URL http://www.quantum-espresso.org", 
     in publications or presentations arising from this work. More details at
     http://www.quantum-espresso.org/quote

     Parallel version (MPI), running on    32 processors
     K-points division:     npool     =       2
     R & G space division:  proc/nbgrp/npool/nimage =      16
     Reading input from scf.in
Warning: card &IONS ignored
Warning: card / ignored

     Current dimensions of program PWSCF are:
     Max number of different atomic species (ntypx) = 10
     Max number of k-points (npk) =  40000
     Max angular momentum in pseudopotentials (lmaxx) =  3

     Subspace diagonalization in iterative solution of the eigenvalue problem:
     one sub-group per band group will be used
     scalapack distributed-memory algorithm (size of sub-group:  4*  4 procs)

 
     Parallelization info
     --------------------
     sticks:   dense  smooth     PW     G-vecs:    dense   smooth      PW
     Min         252     252     62                12125    12125    1510
     Max         254     254     63                12129    12129    1515
     Sum        4049    4049   1005               194039   194039   24207
 


     bravais-lattice index     =            1
     lattice parameter (alat)  =      13.4862  a.u.
     unit-cell volume          =    2452.8358 (a.u.)^3
     number of atoms/cell      =           63
     number of atomic types    =            2
     number of electrons       =       254.00
     number of Kohn-Sham states=          152
     kinetic-energy cutoff     =      70.0000  Ry
     charge density cutoff     =     280.0000  Ry
     convergence threshold     =      1.0E-06
     mixing beta               =       0.5000
     number of iterations used =            8  plain     mixing
     Exchange-correlation      = PBE ( 1  4  3  4 0 0)

     celldm(1)=  13.486197  celldm(2)=   0.000000  celldm(3)=   0.000000
     celldm(4)=   0.000000  celldm(5)=   0.000000  celldm(6)=   0.000000

     crystal axes: (cart. coord. in units of alat)
               a(1) = (   1.000000   0.000000   0.000000 )  
               a(2) = (   0.000000   1.000000   0.000000 )  
               a(3) = (   0.000000   0.000000   1.000000 )  

     reciprocal axes: (cart. coord. in units 2 pi/alat)
               b(1) = (  1.000000  0.000000  0.000000 )  
               b(2) = (  0.000000  1.000000  0.000000 )  
               b(3) = (  0.000000  0.000000  1.000000 )  


     PseudoPot. # 1 for C  read from file:
     /export/data/share/tjsmart/Pseudo/C_ONCV_PBE-1.0.upf
     MD5 check sum: 72b63e32b2fd29504de26a4901699f60
     Pseudo is Norm-conserving, Zval =  4.0
     Generated using ONCVPSP code by D. R. Hamann
     Using radial grid of 1248 points,  4 beta functions with: 
                l(1) =   0
                l(2) =   0
                l(3) =   1
                l(4) =   1

     PseudoPot. # 2 for N  read from file:
     /export/data/share/tjsmart/Pseudo/N_ONCV_PBE-1.0.upf
     MD5 check sum: 09890da6b2972017450f7114a6086fad
     Pseudo is Norm-conserving, Zval =  5.0
     Generated using ONCVPSP code by D. R. Hamann
     Using radial grid of 1058 points,  4 beta functions with: 
                l(1) =   0
                l(2) =   0
                l(3) =   1
                l(4) =   1

     atomic species   valence    mass     pseudopotential
        C              4.00    12.01110     C ( 1.00)
        N              5.00    14.00670     N ( 1.00)

     Starting magnetic structure 
     atomic species   magnetization
        C            0.500
        N            0.500

      6 Sym. Ops. (no inversion) found


                                    s                        frac. trans.

      isym =  1     identity                                     

 cryst.   s( 1) = (     1          0          0      )
                  (     0          1          0      )
                  (     0          0          1      )

 cart.    s( 1) = (  1.0000000  0.0000000  0.0000000 )
                  (  0.0000000  1.0000000  0.0000000 )
                  (  0.0000000  0.0000000  1.0000000 )


      isym =  2     120 deg rotation - cart. axis [-1,-1,-1]     

 cryst.   s( 2) = (     0          0          1      )
                  (     1          0          0      )
                  (     0          1          0      )

 cart.    s( 2) = (  0.0000000  1.0000000  0.0000000 )
                  (  0.0000000  0.0000000  1.0000000 )
                  (  1.0000000  0.0000000  0.0000000 )


      isym =  3     120 deg rotation - cart. axis [1,1,1]        

 cryst.   s( 3) = (     0          1          0      )
                  (     0          0          1      )
                  (     1          0          0      )

 cart.    s( 3) = (  0.0000000  0.0000000  1.0000000 )
                  (  1.0000000  0.0000000  0.0000000 )
                  (  0.0000000  1.0000000  0.0000000 )


      isym =  4     inv. 180 deg rotation - cart. axis [1,-1,0]  

 cryst.   s( 4) = (     0          1          0      )
                  (     1          0          0      )
                  (     0          0          1      )

 cart.    s( 4) = (  0.0000000  1.0000000  0.0000000 )
                  (  1.0000000  0.0000000  0.0000000 )
                  (  0.0000000  0.0000000  1.0000000 )


      isym =  5     inv. 180 deg rotation - cart. axis [-1,0,1]  

 cryst.   s( 5) = (     0          0          1      )
                  (     0          1          0      )
                  (     1          0          0      )

 cart.    s( 5) = (  0.0000000  0.0000000  1.0000000 )
                  (  0.0000000  1.0000000  0.0000000 )
                  (  1.0000000  0.0000000  0.0000000 )


      isym =  6     inv. 180 deg rotation - cart. axis [0,1,-1]  

 cryst.   s( 6) = (     1          0          0      )
                  (     0          0          1      )
                  (     0          1          0      )

 cart.    s( 6) = (  1.0000000  0.0000000  0.0000000 )
                  (  0.0000000  0.0000000  1.0000000 )
                  (  0.0000000  1.0000000  0.0000000 )


     point group C_3v (3m)  
     there are  3 classes
     the character table:

       E     2C3   3s_v 
A_1    1.00  1.00  1.00
A_2    1.00  1.00 -1.00
E      2.00 -1.00  0.00

     the symmetry operations in each class and the name of the first element:

     E        1
          identity                                               
     2C3      2    3
          120 deg rotation - cart. axis [-1,-1,-1]               
     3s_v     4    5    6
          inv. 180 deg rotation - cart. axis [1,-1,0]            

   Cartesian axes

     site n.     atom                  positions (alat units)
         1           C   tau(   1) = (   0.3757796   0.3757796   0.8735742  )
         2           C   tau(   2) = (   0.5002647   0.0004361   0.0004361  )
         3           C   tau(   3) = (   0.4999805  -0.0004371   0.4999805  )
         4           C   tau(   4) = (   0.0004361   0.5002647   0.0004361  )
         5           C   tau(   5) = (  -0.0004371   0.4999805   0.4999805  )
         6           C   tau(   6) = (  -0.0001223  -0.0001223  -0.0001223  )
         7           C   tau(   7) = (   0.0004361   0.0004361   0.5002647  )
         8           C   tau(   8) = (   0.2504569   0.2504569  -0.0008989  )
         9           C   tau(   9) = (   0.2514017   0.2514017   0.4963701  )
        10           C   tau(  10) = (   0.2501495   0.7491355   0.0008441  )
        11           C   tau(  11) = (   0.2511009   0.7486260   0.5021133  )
        12           C   tau(  12) = (   0.7491355   0.2501495   0.0008441  )
        13           C   tau(  13) = (   0.7486260   0.2511009   0.5021133  )
        14           C   tau(  14) = (   0.7495082   0.7495082  -0.0008518  )
        15           C   tau(  15) = (   0.4999805   0.4999805  -0.0004371  )
        16           C   tau(  16) = (   0.7485540   0.7485540   0.4983137  )
        17           C   tau(  17) = (   0.5021133   0.2511009   0.7486260  )
        18           C   tau(  18) = (   0.5021133   0.7486260   0.2511009  )
        19           C   tau(  19) = (   0.4983137   0.7485540   0.7485540  )
        20           C   tau(  20) = (  -0.0008989   0.2504569   0.2504569  )
        21           C   tau(  21) = (   0.0008441   0.2501495   0.7491355  )
        22           C   tau(  22) = (   0.0008441   0.7491355   0.2501495  )
        23           C   tau(  23) = (  -0.0008518   0.7495082   0.7495082  )
        24           C   tau(  24) = (   0.2514017   0.4963701   0.2514017  )
        25           C   tau(  25) = (   0.2511009   0.5021133   0.7486260  )
        26           C   tau(  26) = (   0.2504569  -0.0008989   0.2504569  )
        27           C   tau(  27) = (   0.2501495   0.0008441   0.7491355  )
        28           C   tau(  28) = (   0.7486260   0.5021133   0.2511009  )
        29           C   tau(  29) = (   0.7485540   0.4983137   0.7485540  )
        30           C   tau(  30) = (   0.4963701   0.2514017   0.2514017  )
        31           C   tau(  31) = (   0.7491355   0.0008441   0.2501495  )
        32           C   tau(  32) = (   0.6242333   0.8736477   0.6242333  )
        33           C   tau(  33) = (   0.6362459   0.3623897   0.6362459  )
        34           C   tau(  34) = (   0.3756851   0.8762217   0.8762217  )
        35           C   tau(  35) = (   0.3757796   0.8735742   0.3757796  )
        36           C   tau(  36) = (   0.8762217   0.3756851   0.8762217  )
        37           C   tau(  37) = (   0.8735742   0.3757796   0.3757796  )
        38           C   tau(  38) = (   0.8744853   0.8744853   0.8744853  )
        39           C   tau(  39) = (   0.8762217   0.8762217   0.3756851  )
        40           C   tau(  40) = (   0.1253700   0.1253700   0.8744275  )
        41           C   tau(  41) = (   0.1245712   0.1245712   0.3748732  )
        42           C   tau(  42) = (   0.1235909   0.6243232   0.8761514  )
        43           C   tau(  43) = (   0.1265754   0.6234742   0.3763860  )
        44           C   tau(  44) = (   0.6243232   0.1235909   0.8761514  )
        45           C   tau(  45) = (   0.6234742   0.1265754   0.3763860  )
        46           C   tau(  46) = (   0.6243232   0.8761514   0.1235909  )
        47           C   tau(  47) = (   0.6242333   0.6242333   0.8736477  )
        48           C   tau(  48) = (   0.3748732   0.1245712   0.1245712  )
        49           C   tau(  49) = (   0.3763860   0.1265754   0.6234742  )
        50           C   tau(  50) = (   0.3763860   0.6234742   0.1265754  )
        51           C   tau(  51) = (   0.3623897   0.6362459   0.6362459  )
        52           C   tau(  52) = (   0.8744275   0.1253700   0.1253700  )
        53           C   tau(  53) = (   0.8761514   0.1235909   0.6243232  )
        54           C   tau(  54) = (   0.8761514   0.6243232   0.1235909  )
        55           C   tau(  55) = (   0.8736477   0.6242333   0.6242333  )
        56           C   tau(  56) = (   0.1245712   0.3748732   0.1245712  )
        57           C   tau(  57) = (   0.1265754   0.3763860   0.6234742  )
        58           C   tau(  58) = (   0.1253700   0.8744275   0.1253700  )
        59           C   tau(  59) = (   0.1235909   0.8761514   0.6243232  )
        60           C   tau(  60) = (   0.6234742   0.3763860   0.1265754  )
        61           C   tau(  61) = (   0.6362459   0.6362459   0.3623897  )
        62           C   tau(  62) = (   0.7495082  -0.0008518   0.7495082  )
        63           N   tau(  63) = (   0.3678200   0.3678200   0.3678200  )

   Crystallographic axes

     site n.     atom                  positions (cryst. coord.)
         1           C   tau(   1) = (  0.3757796  0.3757796  0.8735742  )
         2           C   tau(   2) = (  0.5002647  0.0004361  0.0004361  )
         3           C   tau(   3) = (  0.4999805 -0.0004371  0.4999805  )
         4           C   tau(   4) = (  0.0004361  0.5002647  0.0004361  )
         5           C   tau(   5) = ( -0.0004371  0.4999805  0.4999805  )
         6           C   tau(   6) = ( -0.0001223 -0.0001223 -0.0001223  )
         7           C   tau(   7) = (  0.0004361  0.0004361  0.5002647  )
         8           C   tau(   8) = (  0.2504569  0.2504569 -0.0008989  )
         9           C   tau(   9) = (  0.2514017  0.2514017  0.4963701  )
        10           C   tau(  10) = (  0.2501495  0.7491355  0.0008441  )
        11           C   tau(  11) = (  0.2511009  0.7486260  0.5021133  )
        12           C   tau(  12) = (  0.7491355  0.2501495  0.0008441  )
        13           C   tau(  13) = (  0.7486260  0.2511009  0.5021133  )
        14           C   tau(  14) = (  0.7495082  0.7495082 -0.0008518  )
        15           C   tau(  15) = (  0.4999805  0.4999805 -0.0004371  )
        16           C   tau(  16) = (  0.7485540  0.7485540  0.4983137  )
        17           C   tau(  17) = (  0.5021133  0.2511009  0.7486260  )
        18           C   tau(  18) = (  0.5021133  0.7486260  0.2511009  )
        19           C   tau(  19) = (  0.4983137  0.7485540  0.7485540  )
        20           C   tau(  20) = ( -0.0008989  0.2504569  0.2504569  )
        21           C   tau(  21) = (  0.0008441  0.2501495  0.7491355  )
        22           C   tau(  22) = (  0.0008441  0.7491355  0.2501495  )
        23           C   tau(  23) = ( -0.0008518  0.7495082  0.7495082  )
        24           C   tau(  24) = (  0.2514017  0.4963701  0.2514017  )
        25           C   tau(  25) = (  0.2511009  0.5021133  0.7486260  )
        26           C   tau(  26) = (  0.2504569 -0.0008989  0.2504569  )
        27           C   tau(  27) = (  0.2501495  0.0008441  0.7491355  )
        28           C   tau(  28) = (  0.7486260  0.5021133  0.2511009  )
        29           C   tau(  29) = (  0.7485540  0.4983137  0.7485540  )
        30           C   tau(  30) = (  0.4963701  0.2514017  0.2514017  )
        31           C   tau(  31) = (  0.7491355  0.0008441  0.2501495  )
        32           C   tau(  32) = (  0.6242333  0.8736477  0.6242333  )
        33           C   tau(  33) = (  0.6362459  0.3623897  0.6362459  )
        34           C   tau(  34) = (  0.3756851  0.8762217  0.8762217  )
        35           C   tau(  35) = (  0.3757796  0.8735742  0.3757796  )
        36           C   tau(  36) = (  0.8762217  0.3756851  0.8762217  )
        37           C   tau(  37) = (  0.8735742  0.3757796  0.3757796  )
        38           C   tau(  38) = (  0.8744853  0.8744853  0.8744853  )
        39           C   tau(  39) = (  0.8762217  0.8762217  0.3756851  )
        40           C   tau(  40) = (  0.1253700  0.1253700  0.8744275  )
        41           C   tau(  41) = (  0.1245712  0.1245712  0.3748732  )
        42           C   tau(  42) = (  0.1235909  0.6243232  0.8761514  )
        43           C   tau(  43) = (  0.1265754  0.6234742  0.3763860  )
        44           C   tau(  44) = (  0.6243232  0.1235909  0.8761514  )
        45           C   tau(  45) = (  0.6234742  0.1265754  0.3763860  )
        46           C   tau(  46) = (  0.6243232  0.8761514  0.1235909  )
        47           C   tau(  47) = (  0.6242333  0.6242333  0.8736477  )
        48           C   tau(  48) = (  0.3748732  0.1245712  0.1245712  )
        49           C   tau(  49) = (  0.3763860  0.1265754  0.6234742  )
        50           C   tau(  50) = (  0.3763860  0.6234742  0.1265754  )
        51           C   tau(  51) = (  0.3623897  0.6362459  0.6362459  )
        52           C   tau(  52) = (  0.8744275  0.1253700  0.1253700  )
        53           C   tau(  53) = (  0.8761514  0.1235909  0.6243232  )
        54           C   tau(  54) = (  0.8761514  0.6243232  0.1235909  )
        55           C   tau(  55) = (  0.8736477  0.6242333  0.6242333  )
        56           C   tau(  56) = (  0.1245712  0.3748732  0.1245712  )
        57           C   tau(  57) = (  0.1265754  0.3763860  0.6234742  )
        58           C   tau(  58) = (  0.1253700  0.8744275  0.1253700  )
        59           C   tau(  59) = (  0.1235909  0.8761514  0.6243232  )
        60           C   tau(  60) = (  0.6234742  0.3763860  0.1265754  )
        61           C   tau(  61) = (  0.6362459  0.6362459  0.3623897  )
        62           C   tau(  62) = (  0.7495082 -0.0008518  0.7495082  )
        63           N   tau(  63) = (  0.3678200  0.3678200  0.3678200  )

     number of k points=     1
                       cart. coord. in units 2pi/alat
        k(    1) = (   0.0000000   0.0000000   0.0000000), wk =   1.0000000

                       cryst. coord.
        k(    1) = (   0.0000000   0.0000000   0.0000000), wk =   1.0000000

     Dense  grid:   194039 G-vectors     FFT dimensions: (  72,  72,  72)

     Occupations read from input 

      Spin-up

        1.0000   1.0000   1.0000   1.0000   1.0000   1.0000   1.0000   1.0000
        1.0000   1.0000   1.0000   1.0000   1.0000   1.0000   1.0000   1.0000
        1.0000   1.0000   1.0000   1.0000   1.0000   1.0000   1.0000   1.0000
        1.0000   1.0000   1.0000   1.0000   1.0000   1.0000   1.0000   1.0000
        1.0000   1.0000   1.0000   1.0000   1.0000   1.0000   1.0000   1.0000
        1.0000   1.0000   1.0000   1.0000   1.0000   1.0000   1.0000   1.0000
        1.0000   1.0000   1.0000   1.0000   1.0000   1.0000   1.0000   1.0000
        1.0000   1.0000   1.0000   1.0000   1.0000   1.0000   1.0000   1.0000
        1.0000   1.0000   1.0000   1.0000   1.0000   1.0000   1.0000   1.0000
        1.0000   1.0000   1.0000   1.0000   1.0000   1.0000   1.0000   1.0000
        1.0000   1.0000   1.0000   1.0000   1.0000   1.0000   1.0000   1.0000
        1.0000   1.0000   1.0000   1.0000   1.0000   1.0000   1.0000   1.0000
        1.0000   1.0000   1.0000   1.0000   1.0000   1.0000   1.0000   1.0000
        1.0000   1.0000   1.0000   1.0000   1.0000   1.0000   1.0000   1.0000
        1.0000   1.0000   1.0000   1.0000   1.0000   1.0000   1.0000   1.0000
        1.0000   1.0000   1.0000   1.0000   1.0000   1.0000   1.0000   1.0000
        0.0000   0.0000   0.0000   0.0000   0.0000   0.0000   0.0000   0.0000
        0.0000   0.0000   0.0000   0.0000   0.0000   0.0000   0.0000   0.0000
        0.0000   0.0000   0.0000   0.0000   0.0000   0.0000   0.0000   0.0000

      Spin-down

        1.0000   1.0000   1.0000   1.0000   1.0000   1.0000   1.0000   1.0000
        1.0000   1.0000   1.0000   1.0000   1.0000   1.0000   1.0000   1.0000
        1.0000   1.0000   1.0000   1.0000   1.0000   1.0000   1.0000   1.0000
        1.0000   1.0000   1.0000   1.0000   1.0000   1.0000   1.0000   1.0000
        1.0000   1.0000   1.0000   1.0000   1.0000   1.0000   1.0000   1.0000
        1.0000   1.0000   1.0000   1.0000   1.0000   1.0000   1.0000   1.0000
        1.0000   1.0000   1.0000   1.0000   1.0000   1.0000   1.0000   1.0000
        1.0000   1.0000   1.0000   1.0000   1.0000   1.0000   1.0000   1.0000
        1.0000   1.0000   1.0000   1.0000   1.0000   1.0000   1.0000   1.0000
        1.0000   1.0000   1.0000   1.0000   1.0000   1.0000   1.0000   1.0000
        1.0000   1.0000   1.0000   1.0000   1.0000   1.0000   1.0000   1.0000
        1.0000   1.0000   1.0000   1.0000   1.0000   1.0000   1.0000   1.0000
        1.0000   1.0000   1.0000   1.0000   1.0000   1.0000   1.0000   1.0000
        1.0000   1.0000   1.0000   1.0000   1.0000   1.0000   1.0000   1.0000
        1.0000   1.0000   1.0000   1.0000   1.0000   1.0000   1.0000   1.0000
        1.0000   1.0000   1.0000   1.0000   1.0000   0.0000   1.0000   0.0000
        0.0000   0.0000   0.0000   0.0000   0.0000   0.0000   0.0000   0.0000
        0.0000   0.0000   0.0000   0.0000   0.0000   0.0000   0.0000   0.0000
        0.0000   0.0000   0.0000   0.0000   0.0000   0.0000   0.0000   0.0000

     Estimated max dynamical RAM per process >      42.63MB

     Estimated total allocated dynamical RAM >    1364.05MB
     Generating pointlists ...
     new r_m :   0.0855 (alat units)  1.1537 (a.u.) for type    1
     new r_m :   0.0862 (alat units)  1.1620 (a.u.) for type    2

     Initial potential from superposition of free atoms

     starting charge  252.99722, renormalised to  254.00000
     Starting wfc are  252 randomized atomic wfcs

     total cpu time spent up to now is        2.7 secs

     per-process dynamical memory:    49.0 Mb

     Self-consistent Calculation

     iteration #  1     ecut=    70.00 Ry     beta=0.50
     Davidson diagonalization with overlap
     ethr =  1.00E-02,  avg # of iterations =  3.0

     total cpu time spent up to now is        3.8 secs

     total energy              =    -722.07631560 Ry
     Harris-Foulkes estimate   =    -717.26787987 Ry
     estimated scf accuracy    <       6.84473452 Ry

     total magnetization       =     2.00 Bohr mag/cell
     absolute magnetization    =     3.62 Bohr mag/cell

     iteration #  2     ecut=    70.00 Ry     beta=0.50
     Davidson diagonalization with overlap
     ethr =  2.69E-03,  avg # of iterations =  2.0

     total cpu time spent up to now is        4.5 secs

     total energy              =    -723.81707771 Ry
     Harris-Foulkes estimate   =    -722.47860846 Ry
     estimated scf accuracy    <       1.55373887 Ry

     total magnetization       =     2.00 Bohr mag/cell
     absolute magnetization    =     2.45 Bohr mag/cell

     iteration #  3     ecut=    70.00 Ry     beta=0.50
     Davidson diagonalization with overlap
     ethr =  6.12E-04,  avg # of iterations =  3.5

     total cpu time spent up to now is        5.5 secs

     total energy              =    -724.14967907 Ry
     Harris-Foulkes estimate   =    -724.20265172 Ry
     estimated scf accuracy    <       0.83316022 Ry

     total magnetization       =     2.00 Bohr mag/cell
     absolute magnetization    =     2.12 Bohr mag/cell

     iteration #  4     ecut=    70.00 Ry     beta=0.50
     Davidson diagonalization with overlap
     ethr =  3.28E-04,  avg # of iterations =  8.0

     total cpu time spent up to now is        6.7 secs

     total energy              =    -724.30397996 Ry
     Harris-Foulkes estimate   =    -724.28996654 Ry
     estimated scf accuracy    <       0.02161404 Ry

     total magnetization       =     2.00 Bohr mag/cell
     absolute magnetization    =     2.15 Bohr mag/cell

     iteration #  5     ecut=    70.00 Ry     beta=0.50
     Davidson diagonalization with overlap
     ethr =  8.51E-06,  avg # of iterations = 10.5

     total cpu time spent up to now is        8.6 secs

     total energy              =    -724.31299925 Ry
     Harris-Foulkes estimate   =    -724.31162645 Ry
     estimated scf accuracy    <       0.00647028 Ry

     total magnetization       =     2.00 Bohr mag/cell
     absolute magnetization    =     2.17 Bohr mag/cell

     iteration #  6     ecut=    70.00 Ry     beta=0.50
     Davidson diagonalization with overlap
     ethr =  2.55E-06,  avg # of iterations =  6.0

     total cpu time spent up to now is        9.9 secs

     total energy              =    -724.31415118 Ry
     Harris-Foulkes estimate   =    -724.31436524 Ry
     estimated scf accuracy    <       0.00094503 Ry

     total magnetization       =     2.00 Bohr mag/cell
     absolute magnetization    =     2.19 Bohr mag/cell

     iteration #  7     ecut=    70.00 Ry     beta=0.50
     Davidson diagonalization with overlap
     ethr =  3.72E-07,  avg # of iterations =  2.5

     total cpu time spent up to now is       10.8 secs

     total energy              =    -724.31442667 Ry
     Harris-Foulkes estimate   =    -724.31437561 Ry
     estimated scf accuracy    <       0.00008736 Ry

     total magnetization       =     2.00 Bohr mag/cell
     absolute magnetization    =     2.20 Bohr mag/cell

     iteration #  8     ecut=    70.00 Ry     beta=0.50
     Davidson diagonalization with overlap
     ethr =  3.44E-08,  avg # of iterations =  3.0

     total cpu time spent up to now is       11.7 secs

     total energy              =    -724.31447324 Ry
     Harris-Foulkes estimate   =    -724.31445135 Ry
     estimated scf accuracy    <       0.00001369 Ry

     total magnetization       =     2.00 Bohr mag/cell
     absolute magnetization    =     2.20 Bohr mag/cell

     iteration #  9     ecut=    70.00 Ry     beta=0.50
     Davidson diagonalization with overlap
     ethr =  5.39E-09,  avg # of iterations =  4.0

     total cpu time spent up to now is       12.8 secs

     total energy              =    -724.31448841 Ry
     Harris-Foulkes estimate   =    -724.31447764 Ry
     estimated scf accuracy    <       0.00000484 Ry

     total magnetization       =     2.00 Bohr mag/cell
     absolute magnetization    =     2.21 Bohr mag/cell

     iteration # 10     ecut=    70.00 Ry     beta=0.50
     Davidson diagonalization with overlap
     ethr =  1.90E-09,  avg # of iterations =  4.5
 
     Magnetic moment per site:
     atom:    1    charge:    1.8322    magn:    0.0054    constr:    0.0000
     atom:    2    charge:    1.8517    magn:    0.0094    constr:    0.0000
     atom:    3    charge:    1.8396    magn:   -0.0016    constr:    0.0000
     atom:    4    charge:    1.8517    magn:    0.0094    constr:    0.0000
     atom:    5    charge:    1.8396    magn:   -0.0016    constr:    0.0000
     atom:    6    charge:    1.8297    magn:    0.0015    constr:    0.0000
     atom:    7    charge:    1.8517    magn:    0.0094    constr:    0.0000
     atom:    8    charge:    1.8326    magn:    0.0005    constr:    0.0000
     atom:    9    charge:    1.8058    magn:    0.0018    constr:    0.0000
     atom:   10    charge:    1.8274    magn:   -0.0009    constr:    0.0000
     atom:   11    charge:    1.8423    magn:   -0.0036    constr:    0.0000
     atom:   12    charge:    1.8274    magn:   -0.0009    constr:    0.0000
     atom:   13    charge:    1.8423    magn:   -0.0036    constr:    0.0000
     atom:   14    charge:    1.8314    magn:   -0.0004    constr:    0.0000
     atom:   15    charge:    1.8396    magn:   -0.0016    constr:    0.0000
     atom:   16    charge:    1.8359    magn:    0.0019    constr:    0.0000
     atom:   17    charge:    1.8423    magn:   -0.0036    constr:    0.0000
     atom:   18    charge:    1.8423    magn:   -0.0036    constr:    0.0000
     atom:   19    charge:    1.8359    magn:    0.0019    constr:    0.0000
     atom:   20    charge:    1.8326    magn:    0.0005    constr:    0.0000
     atom:   21    charge:    1.8274    magn:   -0.0009    constr:    0.0000
     atom:   22    charge:    1.8274    magn:   -0.0009    constr:    0.0000
     atom:   23    charge:    1.8314    magn:   -0.0004    constr:    0.0000
     atom:   24    charge:    1.8058    magn:    0.0018    constr:    0.0000
     atom:   25    charge:    1.8423    magn:   -0.0036    constr:    0.0000
     atom:   26    charge:    1.8326    magn:    0.0005    constr:    0.0000
     atom:   27    charge:    1.8274    magn:   -0.0009    constr:    0.0000
     atom:   28    charge:    1.8423    magn:   -0.0036    constr:    0.0000
     atom:   29    charge:    1.8359    magn:    0.0019    constr:    0.0000
     atom:   30    charge:    1.8058    magn:    0.0018    constr:    0.0000
     atom:   31    charge:    1.8274    magn:   -0.0009    constr:    0.0000
     atom:   32    charge:    1.8326    magn:    0.0073    constr:    0.0000
     atom:   33    charge:    1.8685    magn:    0.1926    constr:    0.0000
     atom:   34    charge:    1.8290    magn:    0.0195    constr:    0.0000
     atom:   35    charge:    1.8322    magn:    0.0054    constr:    0.0000
     atom:   36    charge:    1.8290    magn:    0.0195    constr:    0.0000
     atom:   37    charge:    1.8322    magn:    0.0054    constr:    0.0000
     atom:   38    charge:    1.8360    magn:    0.0048    constr:    0.0000
     atom:   39    charge:    1.8290    magn:    0.0195    constr:    0.0000
     atom:   40    charge:    1.8355    magn:    0.0031    constr:    0.0000
     atom:   41    charge:    1.8383    magn:    0.0113    constr:    0.0000
     atom:   42    charge:    1.8362    magn:    0.0188    constr:    0.0000
     atom:   43    charge:    1.8302    magn:    0.0065    constr:    0.0000
     atom:   44    charge:    1.8362    magn:    0.0188    constr:    0.0000
     atom:   45    charge:    1.8302    magn:    0.0065    constr:    0.0000
     atom:   46    charge:    1.8362    magn:    0.0188    constr:    0.0000
     atom:   47    charge:    1.8326    magn:    0.0073    constr:    0.0000
     atom:   48    charge:    1.8383    magn:    0.0113    constr:    0.0000
     atom:   49    charge:    1.8302    magn:    0.0065    constr:    0.0000
     atom:   50    charge:    1.8302    magn:    0.0065    constr:    0.0000
     atom:   51    charge:    1.8685    magn:    0.1926    constr:    0.0000
     atom:   52    charge:    1.8355    magn:    0.0031    constr:    0.0000
     atom:   53    charge:    1.8362    magn:    0.0188    constr:    0.0000
     atom:   54    charge:    1.8362    magn:    0.0188    constr:    0.0000
     atom:   55    charge:    1.8326    magn:    0.0073    constr:    0.0000
     atom:   56    charge:    1.8383    magn:    0.0113    constr:    0.0000
     atom:   57    charge:    1.8302    magn:    0.0065    constr:    0.0000
     atom:   58    charge:    1.8355    magn:    0.0031    constr:    0.0000
     atom:   59    charge:    1.8362    magn:    0.0188    constr:    0.0000
     atom:   60    charge:    1.8302    magn:    0.0065    constr:    0.0000
     atom:   61    charge:    1.8685    magn:    0.1926    constr:    0.0000
     atom:   62    charge:    1.8314    magn:   -0.0004    constr:    0.0000
     atom:   63    charge:    2.9206    magn:    0.1520    constr:    0.0000

     total cpu time spent up to now is       13.9 secs

     End of self-consistent calculation

 ------ SPIN UP ------------


          k = 0.0000 0.0000 0.0000 ( 24207 PWs)   bands (ev):

    -8.6221  -7.1873  -6.2810  -6.2810  -6.1420  -6.1420  -5.8849  -5.0156
    -4.1466  -4.1466  -4.1171  -4.1171  -4.0020  -4.0020  -3.9901  -3.9518
    -3.8382  -3.8382  -3.3676  -2.9652  -2.6538  -2.6538  -2.0827  -0.3960
    -0.3960  -0.3422  -0.3121  -0.1593   0.1594   0.1594   0.2675   0.2675
     0.3541   0.5875   0.8049   0.8049   0.9838   0.9973   0.9973   1.0400
     1.0400   1.0780   1.3706   1.3706   3.0389   3.7967   3.7967   4.0122
     4.2107   4.2107   4.2173   4.2261   4.2561   4.2561   4.4181   4.4181
     4.4605   4.4605   4.5835   4.6416   4.6416   4.6471   4.6591   4.7420
     4.7420   4.8743   4.9360   4.9360   5.0129   5.1897   5.1897   5.2555
     5.3353   5.3353   5.3817   5.4316   5.4316   6.0085   6.0085   6.0498
     6.6095   6.6095   6.7106   6.9115   7.0044   7.0044   7.5003   8.2646
     8.2646   8.3871   8.4540   8.4540   8.6221   8.6221   8.7845   8.7860
     8.7918   8.7918   8.8787   8.8787   8.8944   9.2598   9.2654   9.2654
     9.6552   9.6552   9.8766   9.8818   9.8818   9.8908   9.9211   9.9371
     9.9371   9.9664   9.9734   9.9734  10.0993  10.0993  10.3152  10.3254
    10.3254  10.5129  12.2392  12.4269  12.4269  13.6058  15.0474  15.0474
    17.2058  17.3233  17.3233  17.4599  17.5305  17.5305  17.8106  17.8931
    17.8931  18.0036  18.0036  18.3286  18.8876  18.8876  18.9565  20.5072
    20.7496  20.7496  20.8213  20.8623  20.8623  20.9628  20.9630  20.9653

     occupation numbers 
     1.0000   1.0000   1.0000   1.0000   1.0000   1.0000   1.0000   1.0000
     1.0000   1.0000   1.0000   1.0000   1.0000   1.0000   1.0000   1.0000
     1.0000   1.0000   1.0000   1.0000   1.0000   1.0000   1.0000   1.0000
     1.0000   1.0000   1.0000   1.0000   1.0000   1.0000   1.0000   1.0000
     1.0000   1.0000   1.0000   1.0000   1.0000   1.0000   1.0000   1.0000
     1.0000   1.0000   1.0000   1.0000   1.0000   1.0000   1.0000   1.0000
     1.0000   1.0000   1.0000   1.0000   1.0000   1.0000   1.0000   1.0000
     1.0000   1.0000   1.0000   1.0000   1.0000   1.0000   1.0000   1.0000
     1.0000   1.0000   1.0000   1.0000   1.0000   1.0000   1.0000   1.0000
     1.0000   1.0000   1.0000   1.0000   1.0000   1.0000   1.0000   1.0000
     1.0000   1.0000   1.0000   1.0000   1.0000   1.0000   1.0000   1.0000
     1.0000   1.0000   1.0000   1.0000   1.0000   1.0000   1.0000   1.0000
     1.0000   1.0000   1.0000   1.0000   1.0000   1.0000   1.0000   1.0000
     1.0000   1.0000   1.0000   1.0000   1.0000   1.0000   1.0000   1.0000
     1.0000   1.0000   1.0000   1.0000   1.0000   1.0000   1.0000   1.0000
     1.0000   1.0000   1.0000   1.0000   1.0000   1.0000   1.0000   1.0000
     0.0000   0.0000   0.0000   0.0000   0.0000   0.0000   0.0000   0.0000
     0.0000   0.0000   0.0000   0.0000   0.0000   0.0000   0.0000   0.0000
     0.0000   0.0000   0.0000   0.0000   0.0000   0.0000   0.0000   0.0000

 ------ SPIN DOWN ----------


          k = 0.0000 0.0000 0.0000 ( 24207 PWs)   bands (ev):

    -8.5787  -7.0962  -6.2602  -6.2602  -6.1079  -6.1079  -5.8487  -4.9634
    -4.1233  -4.1233  -4.0991  -4.0991  -3.9684  -3.9544  -3.9544  -3.9343
    -3.7994  -3.7994  -3.3253  -2.9320  -2.6051  -2.6051  -1.9649  -0.3771
    -0.3771  -0.3219  -0.2764  -0.0823   0.1794   0.1794   0.3006   0.3006
     0.3773   0.6291   0.8226   0.8226   1.0144   1.0245   1.0245   1.0594
     1.0594   1.0929   1.5071   1.5071   3.1480   3.8371   3.8371   4.0507
     4.2362   4.2461   4.2461   4.2709   4.2749   4.2749   4.4445   4.4445
     4.4999   4.4999   4.6020   4.6623   4.6623   4.6743   4.6758   4.7796
     4.7796   4.8977   4.9633   4.9633   5.0994   5.2253   5.2253   5.2931
     5.3477   5.3477   5.3927   5.4808   5.4808   6.0603   6.0603   6.1076
     6.6401   6.6401   6.7360   6.9989   7.0842   7.0842   7.6546   8.3037
     8.3037   8.4318   8.4856   8.4856   8.6620   8.6620   8.8047   8.8157
     8.8157   8.8649   8.9088   8.9204   8.9204   9.2941   9.2941   9.3020
     9.6843   9.6843   9.8912   9.9037   9.9081   9.9081   9.9516   9.9590
     9.9590   9.9956  10.0054  10.0054  10.1334  10.1334  10.3584  10.3826
    10.3826  11.0279  12.5284  12.5284  12.5285  14.3138  16.0371  16.0371
    17.2547  17.3425  17.3425  17.4848  17.5742  17.5742  17.8510  17.9131
    17.9131  18.0385  18.0385  18.4349  18.9603  18.9603  19.0063  20.5819
    20.7664  20.7664  20.8312  20.8881  20.8881  20.9847  20.9848  20.9881

     occupation numbers 
     1.0000   1.0000   1.0000   1.0000   1.0000   1.0000   1.0000   1.0000
     1.0000   1.0000   1.0000   1.0000   1.0000   1.0000   1.0000   1.0000
     1.0000   1.0000   1.0000   1.0000   1.0000   1.0000   1.0000   1.0000
     1.0000   1.0000   1.0000   1.0000   1.0000   1.0000   1.0000   1.0000
     1.0000   1.0000   1.0000   1.0000   1.0000   1.0000   1.0000   1.0000
     1.0000   1.0000   1.0000   1.0000   1.0000   1.0000   1.0000   1.0000
     1.0000   1.0000   1.0000   1.0000   1.0000   1.0000   1.0000   1.0000
     1.0000   1.0000   1.0000   1.0000   1.0000   1.0000   1.0000   1.0000
     1.0000   1.0000   1.0000   1.0000   1.0000   1.0000   1.0000   1.0000
     1.0000   1.0000   1.0000   1.0000   1.0000   1.0000   1.0000   1.0000
     1.0000   1.0000   1.0000   1.0000   1.0000   1.0000   1.0000   1.0000
     1.0000   1.0000   1.0000   1.0000   1.0000   1.0000   1.0000   1.0000
     1.0000   1.0000   1.0000   1.0000   1.0000   1.0000   1.0000   1.0000
     1.0000   1.0000   1.0000   1.0000   1.0000   1.0000   1.0000   1.0000
     1.0000   1.0000   1.0000   1.0000   1.0000   1.0000   1.0000   1.0000
     1.0000   1.0000   1.0000   1.0000   1.0000   0.0000   1.0000   0.0000
     0.0000   0.0000   0.0000   0.0000   0.0000   0.0000   0.0000   0.0000
     0.0000   0.0000   0.0000   0.0000   0.0000   0.0000   0.0000   0.0000
     0.0000   0.0000   0.0000   0.0000   0.0000   0.0000   0.0000   0.0000

     highest occupied, lowest unoccupied level (ev):    15.0474   14.3138

!    total energy              =    -724.31449311 Ry
     Harris-Foulkes estimate   =    -724.31449185 Ry
     estimated scf accuracy    <       0.00000091 Ry

     The total energy is the sum of the following terms:

     one-electron contribution =     232.34240912 Ry
     hartree contribution      =      70.03680841 Ry
     xc contribution           =    -226.64491824 Ry
     ewald contribution        =    -800.04879239 Ry

     total magnetization       =     2.00 Bohr mag/cell
     absolute magnetization    =     2.22 Bohr mag/cell

     convergence has been achieved in  10 iterations

     Writing output data file di.save
 
     init_run     :      1.46s CPU      1.70s WALL (       1 calls)
     electrons    :     10.93s CPU     11.28s WALL (       1 calls)

     Called by init_run:
     wfcinit      :      0.36s CPU      0.39s WALL (       1 calls)
     wfcinit:atom :      0.00s CPU      0.00s WALL (       1 calls)
     wfcinit:wfcr :      0.34s CPU      0.36s WALL (       1 calls)
     potinit      :      0.08s CPU      0.09s WALL (       1 calls)

     Called by electrons:
     c_bands      :      9.84s CPU     10.16s WALL (      10 calls)
     sum_band     :      0.58s CPU      0.59s WALL (      10 calls)
     v_of_rho     :      0.40s CPU      0.41s WALL (      11 calls)
     v_h          :      0.01s CPU      0.01s WALL (      11 calls)
     v_xc         :      0.39s CPU      0.40s WALL (      11 calls)
     mix_rho      :      0.07s CPU      0.08s WALL (      10 calls)

     Called by c_bands:
     init_us_2    :      0.09s CPU      0.10s WALL (      21 calls)
     cegterg      :      9.44s CPU      9.76s WALL (      10 calls)

     Called by sum_band:

     Called by *egterg:
     h_psi        :      4.52s CPU      4.59s WALL (      60 calls)
     g_psi        :      0.03s CPU      0.03s WALL (      49 calls)
     cdiaghg      :      2.94s CPU      3.09s WALL (      59 calls)
     cegterg:over :      0.85s CPU      0.85s WALL (      49 calls)
     cegterg:upda :      0.84s CPU      0.84s WALL (      49 calls)
     cegterg:last :      0.29s CPU      0.30s WALL (      10 calls)
     cdiaghg:chol :      0.24s CPU      0.28s WALL (      59 calls)
     cdiaghg:inve :      0.16s CPU      0.16s WALL (      59 calls)
     cdiaghg:para :      0.24s CPU      0.27s WALL (     118 calls)

     Called by h_psi:
     h_psi:pot    :      4.46s CPU      4.53s WALL (      60 calls)
     h_psi:calbec :      0.97s CPU      0.98s WALL (      60 calls)
     vloc_psi     :      2.50s CPU      2.54s WALL (      60 calls)
     add_vuspsi   :      0.99s CPU      1.00s WALL (      60 calls)

     General routines
     calbec       :      0.97s CPU      0.98s WALL (      60 calls)
     fft          :      0.13s CPU      0.23s WALL (     228 calls)
     fftw         :      2.71s CPU      2.66s WALL (   10198 calls)
 
     Parallel routines
     fft_scatter  :      0.81s CPU      0.81s WALL (   10426 calls)
 
     PWSCF        :    13.04s CPU        14.71s WALL

 
   This run was terminated on:  13:19:24   1Jun2021            

=------------------------------------------------------------------------------=
   JOB DONE.
=------------------------------------------------------------------------------=
