
                                 *****************
                                 * O   R   C   A *
                                 *****************

           --- An Ab Initio, DFT and Semiempirical electronic structure package ---

                  #######################################################
                  #                        -***-                        #
                  #          Department of theory and spectroscopy      #
                  #               Directorship: Frank Neese             #
                  #        Max Planck Institute fuer Kohlenforschung    #
                  #                Kaiser Wilhelm Platz 1               #
                  #                 D-45470 Muelheim/Ruhr               #
                  #                      Germany                        #
                  #                                                     #
                  #                  All rights reserved                #
                  #                        -***-                        #
                  #######################################################


                         Program Version 4.2.1 -  RELEASE  -


 With contributions from (in alphabetic order):
   Daniel Aravena         : Magnetic Suceptibility
   Michael Atanasov       : Ab Initio Ligand Field Theory (pilot matlab implementation)
   Alexander A. Auer      : GIAO ZORA, VPT2
   Ute Becker             : Parallelization
   Giovanni Bistoni       : ED, misc. LED, open-shell LED, HFLD
   Martin Brehm           : Molecular dynamics
   Dmytro Bykov           : SCF Hessian
   Vijay G. Chilkuri      : MRCI spin determinant printing, contributions to CSF-ICE
   Dipayan Datta          : RHF DLPNO-CCSD density
   Achintya Kumar Dutta   : EOM-CC, STEOM-CC
   Dmitry Ganyushin       : Spin-Orbit,Spin-Spin,Magnetic field MRCI
   Miquel Garcia          : C-PCM Hessian, Gaussian charge scheme
   Yang Guo               : DLPNO-NEVPT2, CIM, IAO-localization
   Andreas Hansen         : Spin unrestricted coupled pair/coupled cluster methods
   Benjamin Helmich-Paris : CASSCF linear response (MC-RPA)
   Lee Huntington         : MR-EOM, pCC
   Robert Izsak           : Overlap fitted RIJCOSX, COSX-SCS-MP3, EOM
   Christian Kollmar      : KDIIS, OOCD, Brueckner-CCSD(T), CCSD density
   Simone Kossmann        : Meta GGA functionals, TD-DFT gradient, OOMP2, MP2 Hessian
   Martin Krupicka        : AUTO-CI
   Lucas Lang             : DCDCAS
   Dagmar Lenk            : GEPOL surface, SMD
   Dimitrios Liakos       : Extrapolation schemes; Compound Job, initial MDCI parallelization
   Dimitrios Manganas     : Further ROCIS development; embedding schemes
   Dimitrios Pantazis     : SARC Basis sets
   Taras Petrenko         : DFT Hessian,TD-DFT gradient, ASA, ECA, R-Raman, ABS, FL, XAS/XES, NRVS
   Peter Pinski           : DLPNO-MP2, DLPNO-MP2 Gradient
   Christoph Reimann      : Effective Core Potentials
   Marius Retegan         : Local ZFS, SOC
   Christoph Riplinger    : Optimizer, TS searches, QM/MM, DLPNO-CCSD(T), (RO)-DLPNO pert. Triples
   Tobias Risthaus        : Range-separated hybrids, TD-DFT gradient, RPA, STAB
   Michael Roemelt        : Original ROCIS implementation
   Masaaki Saitow         : Open-shell DLPNO-CCSD energy and density
   Barbara Sandhoefer     : DKH picture change effects
   Avijit Sen             : IP-ROCIS
   Kantharuban Sivalingam : CASSCF convergence, NEVPT2, FIC-MRCI
   Bernardo de Souza      : ESD, SOC TD-DFT
   Georgi Stoychev        : AutoAux, RI-MP2 NMR
   Willem Van den Heuvel  : Paramagnetic NMR
   Boris Wezisla          : Elementary symmetry handling
   Frank Wennmohs         : Technical directorship


 We gratefully acknowledge several colleagues who have allowed us to
 interface, adapt or use parts of their codes:
   Stefan Grimme, W. Hujo, H. Kruse,             : VdW corrections, initial TS optimization,
                  C. Bannwarth                     DFT functionals, gCP, sTDA/sTD-DF
   Ed Valeev, F. Pavosevic, A. Kumar             : LibInt (2-el integral package), F12 methods
   Garnet Chan, S. Sharma, J. Yang, R. Olivares  : DMRG
   Ulf Ekstrom                                   : XCFun DFT Library
   Mihaly Kallay                                 : mrcc  (arbitrary order and MRCC methods)
   Andreas Klamt, Michael Diedenhofen            : otool_cosmo (COSMO solvation model)
   Jiri Pittner, Ondrej Demel                    : Mk-CCSD
   Frank Weinhold                                : gennbo (NPA and NBO analysis)
   Christopher J. Cramer and Donald G. Truhlar   : smd solvation model
   Lars Goerigk                                  : TD-DFT with DH, B97 family of functionals
   V. Asgeirsson, H. Jonsson                     : NEB implementation
   FAccTs GmbH                                   : IRC, NEB, NEB-TS, Multilevel, MM, QM/MM, CI optimization
   S Lehtola, MJT Oliveira, MAL Marques          : LibXC Library


 Your calculation uses the libint2 library for the computation of 2-el integrals
 For citations please refer to: http://libint.valeyev.net

 Your ORCA version has been built with support for libXC version: 4.2.3
 For citations please refer to: https://tddft.org/programs/libxc/

 This ORCA versions uses:
   CBLAS   interface :  Fast vector & matrix operations
   LAPACKE interface :  Fast linear algebra routines
   SCALAPACK package :  Parallel linear algebra routines




***************************************
The coordinates will be read from file: nv_cluster.xyz
***************************************


----- Orbital basis set information -----
Your calculation utilizes the basis: def2-TZVP
   F. Weigend and R. Ahlrichs, Phys. Chem. Chem. Phys. 7, 3297 (2005).

----- AuxJ basis set information -----
Your calculation utilizes the auxiliary basis: def2/J
   F. Weigend, Phys. Chem. Chem. Phys. 8, 1057 (2006).

================================================================================
                                        WARNINGS
                       Please study these warnings very carefully!
================================================================================

INFO   : Checking CIS options ...

WARNING: (CIS/TDDFT): Spin-orbit needs TRIPLETS set to TRUE
  ===> : ajusting flags

WARNING: CIS/ROCIS methods need fully converged wavefunctions
  ===> : Setting SCFConvForced true
         You can overwrite this default with %scf ConvForced false 


INFO   : the flag for use of LIBINT has been found!

================================================================================
                                       INPUT FILE
================================================================================
NAME = tddft.in
|  1> # functional/basis
|  2> ! PBE def2-TZVP
|  3> 
|  4> # TDDFT block
|  5> %TDDFT  NROOTS  5
|  6>         DOSOC   TRUE
|  7> END
|  8> 
|  9> # geometry
| 10> * xyzFile -1 1 nv_cluster.xyz
| 11> 
| 12> # parallelization
| 13> %PAL NPROCS 72 END
| 14> 
| 15>                          ****END OF INPUT****
================================================================================

                       ****************************
                       * Single Point Calculation *
                       ****************************

---------------------------------
CARTESIAN COORDINATES (ANGSTROEM)
---------------------------------
  C      8.091600    6.206040    8.091600
  C      8.028270    8.028270    9.810990
  C      9.804780    6.248830    6.248830
  C      6.248830    9.804780    6.248830
  C      6.248830    6.248830    9.804780
  C      8.013620    6.253760    4.476130
  C      4.476130    6.253760    8.013620
  C      6.253760    8.013620    4.476130
  C      6.253760    4.476130    8.013620
  C      8.013620    4.476130    6.253760
  C      4.476130    8.013620    6.253760
  C      5.355250    5.355250    7.096690
  C      5.355250    7.096690    5.355250
  C      7.096690    5.355250    5.355250
  C      8.917750    8.917750    7.130610
  C      8.917750    7.130610    8.917750
  C      7.130610    8.917750    8.917750
  C      8.907460    7.147320    5.371140
  C      5.371140    7.147320    8.907460
  C      7.147320    8.907460    5.371140
  C      7.147320    5.371140    8.907460
  C      8.907460    5.371140    7.147320
  C      5.371140    8.907460    7.147320
  C      8.091600    8.091600    6.206040
  C      6.206040    8.091600    8.091600
  C      9.810990    8.028270    8.028270
  C      8.028270    9.810990    8.028270
  N      6.164130    6.164130    6.164130
  H      7.413360    7.413360   10.434410
  H      8.648950    8.648950   10.422890
  H     10.436790    6.859340    6.859340
  H     10.413920    5.626790    5.626790
  H      5.623980   10.408140    5.623980
  H      6.856400   10.442440    6.856400
  H      6.859340    6.859340   10.436790
  H      5.626790    5.626790   10.413920
  H      7.405680    6.875000    3.852130
  H      8.638760    5.628850    3.873150
  H      3.864670    5.633050    8.634700
  H      3.860530    6.879190    7.401440
  H      5.633050    8.634700    3.864670
  H      6.879190    7.401440    3.860530
  H      6.875000    3.852130    7.405680
  H      5.628850    3.873150    8.638760
  H      8.634700    3.864670    5.633050
  H      7.401440    3.860530    6.879190
  H      3.852130    7.405680    6.875000
  H      3.873150    8.638760    5.628850
  H      4.732430    4.732430    6.489170
  H      4.732430    6.489170    4.732430
  H      6.489170    4.732430    4.732430
  H      9.540160    9.540160    6.522250
  H      9.540160    6.522250    9.540160
  H      6.522250    9.540160    9.540160
  H      9.525800    7.755210    4.744220
  H      4.744220    7.755210    9.525800
  H      7.755210    9.525800    4.744220
  H      7.755210    4.744220    9.525800
  H      9.525800    4.744220    7.755210
  H      4.744220    9.525800    7.755210
  H     10.423080    8.648860    8.648860
  H     10.434230    7.413260    7.413260
  H      7.413360   10.434410    7.413360
  H      8.648950   10.422890    8.648950

----------------------------
CARTESIAN COORDINATES (A.U.)
----------------------------
  NO LB      ZA    FRAG     MASS         X           Y           Z
   0 C     6.0000    0    12.011   15.290908   11.727716   15.290908
   1 C     6.0000    0    12.011   15.171232   15.171232   18.540084
   2 C     6.0000    0    12.011   18.528349   11.808577   11.808577
   3 C     6.0000    0    12.011   11.808577   18.528349   11.808577
   4 C     6.0000    0    12.011   11.808577   11.808577   18.528349
   5 C     6.0000    0    12.011   15.143547   11.817894    8.458660
   6 C     6.0000    0    12.011    8.458660   11.817894   15.143547
   7 C     6.0000    0    12.011   11.817894   15.143547    8.458660
   8 C     6.0000    0    12.011   11.817894    8.458660   15.143547
   9 C     6.0000    0    12.011   15.143547    8.458660   11.817894
  10 C     6.0000    0    12.011    8.458660   15.143547   11.817894
  11 C     6.0000    0    12.011   10.119956   10.119956   13.410801
  12 C     6.0000    0    12.011   10.119956   13.410801   10.119956
  13 C     6.0000    0    12.011   13.410801   10.119956   10.119956
  14 C     6.0000    0    12.011   16.852105   16.852105   13.474900
  15 C     6.0000    0    12.011   16.852105   13.474900   16.852105
  16 C     6.0000    0    12.011   13.474900   16.852105   16.852105
  17 C     6.0000    0    12.011   16.832660   13.506477   10.149984
  18 C     6.0000    0    12.011   10.149984   13.506477   16.832660
  19 C     6.0000    0    12.011   13.506477   16.832660   10.149984
  20 C     6.0000    0    12.011   13.506477   10.149984   16.832660
  21 C     6.0000    0    12.011   16.832660   10.149984   13.506477
  22 C     6.0000    0    12.011   10.149984   16.832660   13.506477
  23 C     6.0000    0    12.011   15.290908   15.290908   11.727716
  24 C     6.0000    0    12.011   11.727716   15.290908   15.290908
  25 C     6.0000    0    12.011   18.540084   15.171232   15.171232
  26 C     6.0000    0    12.011   15.171232   18.540084   15.171232
  27 N     7.0000    0    14.007   11.648518   11.648518   11.648518
  28 H     1.0000    0     1.008   14.009220   14.009220   19.718177
  29 H     1.0000    0     1.008   16.344147   16.344147   19.696408
  30 H     1.0000    0     1.008   19.722675   12.962274   12.962274
  31 H     1.0000    0     1.008   19.679457   10.633092   10.633092
  32 H     1.0000    0     1.008   10.627782   19.668534   10.627782
  33 H     1.0000    0     1.008   12.956718   19.733352   12.956718
  34 H     1.0000    0     1.008   12.962274   12.962274   19.722675
  35 H     1.0000    0     1.008   10.633092   10.633092   19.679457
  36 H     1.0000    0     1.008   13.994707   12.991867    7.279471
  37 H     1.0000    0     1.008   16.324891   10.636985    7.319193
  38 H     1.0000    0     1.008    7.303168   10.644922   16.317218
  39 H     1.0000    0     1.008    7.295344   12.999785   13.986695
  40 H     1.0000    0     1.008   10.644922   16.317218    7.303168
  41 H     1.0000    0     1.008   12.999785   13.986695    7.295344
  42 H     1.0000    0     1.008   12.991867    7.279471   13.994707
  43 H     1.0000    0     1.008   10.636985    7.319193   16.324891
  44 H     1.0000    0     1.008   16.317218    7.303168   10.644922
  45 H     1.0000    0     1.008   13.986695    7.295344   12.999785
  46 H     1.0000    0     1.008    7.279471   13.994707   12.991867
  47 H     1.0000    0     1.008    7.319193   16.324891   10.636985
  48 H     1.0000    0     1.008    8.942997    8.942997   12.262754
  49 H     1.0000    0     1.008    8.942997   12.262754    8.942997
  50 H     1.0000    0     1.008   12.262754    8.942997    8.942997
  51 H     1.0000    0     1.008   18.028290   18.028290   12.325266
  52 H     1.0000    0     1.008   18.028290   12.325266   18.028290
  53 H     1.0000    0     1.008   12.325266   18.028290   18.028290
  54 H     1.0000    0     1.008   18.001153   14.655223    8.965277
  55 H     1.0000    0     1.008    8.965277   14.655223   18.001153
  56 H     1.0000    0     1.008   14.655223   18.001153    8.965277
  57 H     1.0000    0     1.008   14.655223    8.965277   18.001153
  58 H     1.0000    0     1.008   18.001153    8.965277   14.655223
  59 H     1.0000    0     1.008    8.965277   18.001153   14.655223
  60 H     1.0000    0     1.008   19.696767   16.343977   16.343977
  61 H     1.0000    0     1.008   19.717837   14.009031   14.009031
  62 H     1.0000    0     1.008   14.009220   19.718177   14.009220
  63 H     1.0000    0     1.008   16.344147   19.696408   16.344147

--------------------------------
INTERNAL COORDINATES (ANGSTROEM)
--------------------------------
 C      0   0   0     0.000000000000     0.00000000     0.00000000
 C      1   0   0     2.506159379190     0.00000000     0.00000000
 C      1   2   0     2.516469346008   120.47980163     0.00000000
 C      2   1   3     4.360203935517    75.28951276    76.22046809
 C      1   2   3     2.516469346008    60.13666109   185.28092605
 C      3   1   2     2.520068201557    91.79198254   238.71168205
 C      5   1   2     2.520068201557    91.79198254   123.94390755
 C      6   3   1     2.488817879878   120.26270367    55.80981499
 C      7   5   1     2.513948454881    60.08029854    53.58771898
 C      9   7   5     2.488817879878   120.00000000   250.17453640
 C      7   5   1     2.488817879878   120.26270367   304.19018501
 C      7   5   1     1.555934709234    91.16208969    34.31291560
 C      8   6   3     1.555934709234    89.52036489   268.93440633
 C      6   3   1     1.555934709234    91.16208969   325.68708440
 C      3   1   2     2.947455199948    65.88564782   327.58081757
 C      1   2   3     1.489925276616    35.15413206    36.91849483
 C      2   1   3     1.547528947581    92.09616738    86.26473595
 C      3   1   2     1.543634412223    91.74895805   274.21412918
 C      5   1   2     1.543634412223    91.74895805    88.44146042
 C      4   2   1     1.543634412223    89.43444612   329.10816183
 C      1   2   3     1.501449389090    90.89531622   168.18484645
 C      1   2   3     1.501449389090   148.15947890    30.90318513
 C      4   2   1     1.543634412223    61.29327482    81.12116562
 C     15   3   1     1.489925276616    58.60965677   280.74828730
 C     17   2   1     1.489925276616   111.18020203    33.04196419
 C     15   3   1     1.547528947581    58.62536457    70.95401177
 C     15   3   1     1.547528947581   150.36231022   358.24113344
 N     12   7   5     1.475886805416   111.44049815   266.47389401
 H      2   1   3     1.069991174076    89.79353307   195.73746053
 H      2   1   3     1.070004175132   143.07771550   319.13264563
 H      3   1   2     1.069991383283    89.65615315    23.82610373
 H      3   1   2     1.070008907813   143.45442016   146.59818792
 H      4   2   1     1.070008567536   160.93593747   146.72547784
 H      4   2   1     1.069996675415    63.07526487   216.46486797
 H     29   2   1     0.783506212611   144.53757974   327.85866188
 H      5   1   2     1.070008907813   143.45442016   216.05740169
 H      6   3   1     1.070002888407   144.60621113    92.43846601
 H      6   3   1     1.069998788831    88.85454943   216.71123382
 H      7   5   1     1.070002150512    89.32899054   143.56976877
 H      7   5   1     1.069995512748   144.34071963   268.39352698
 H      8   6   3     1.070002150512   145.14812122   144.50547090
 H     37   6   3     0.744581327794   143.67472723   297.93895215
 H      9   7   5     1.070002888407   145.37731396   214.72621590
 H      9   7   5     1.069998788831    89.16961751    89.15623899
 H     10   9   7     1.070002150512   145.14812122   215.23987415
 H     43   9   7     0.744581327794   143.67472723    59.45941249
 H     40   7   5     0.744581327794   145.51898321    61.41526941
 H     11   7   5     1.069998788831   145.69949232   215.48546727
 H     12   7   5     1.069995352887   109.98974505   148.94952807
 H     13   8   6     1.069995352887   109.98974505   269.20901610
 H     14   6   3     1.069995352887   109.98974505   211.05047193
 H     15   3   1     1.069995469990   100.46117684   177.12691771
 H     16   1   2     1.069995469990   106.99375317   119.12222917
 H     17   2   1     1.069995469990   109.17093523   150.85301270
 H     18   3   1     1.070001539298   109.14085342   150.53266699
 H     19   5   1     1.070001539298   109.14085342   209.46733301
 H     20   4   2     1.070001539298   109.14085342   239.07347811
 H     21   1   2     1.070001539298   106.41038929   267.64060383
 H     22   1   2     1.070001539298   106.41038929    68.05132377
 H     23   4   2     1.070001539298   109.14085342   101.69249187
 H     26  15   3     1.070008441228   109.46620566   150.41611367
 H     31   3   1     0.783365359459   143.60831212   328.00561943
 H     34   4   2     0.787701316553   142.83582035    18.92060647
 H     27  15   3     1.070004175132   109.46008504   119.16576000

---------------------------
INTERNAL COORDINATES (A.U.)
---------------------------
 C      0   0   0     0.000000000000     0.00000000     0.00000000
 C      1   0   0     4.735954874626     0.00000000     0.00000000
 C      1   2   0     4.755437888364   120.47980163     0.00000000
 C      2   1   3     8.239591326173    75.28951276    76.22046809
 C      1   2   3     4.755437888364    60.13666109   185.28092605
 C      3   1   2     4.762238739747    91.79198254   238.71168205
 C      5   1   2     4.762238739747    91.79198254   123.94390755
 C      6   3   1     4.703184190176   120.26270367    55.80981499
 C      7   5   1     4.750674094520    60.08029854    53.58771898
 C      9   7   5     4.703184190176   120.00000000   250.17453640
 C      7   5   1     4.703184190176   120.26270367   304.19018501
 C      7   5   1     2.940290482715    91.16208969    34.31291560
 C      8   6   3     2.940290482715    89.52036489   268.93440633
 C      6   3   1     2.940290482715    91.16208969   325.68708440
 C      3   1   2     5.569883119904    65.88564782   327.58081757
 C      1   2   3     2.815550732812    35.15413206    36.91849483
 C      2   1   3     2.924405895243    92.09616738    86.26473595
 C      3   1   2     2.917046289999    91.74895805   274.21412918
 C      5   1   2     2.917046289999    91.74895805    88.44146042
 C      4   2   1     2.917046289999    89.43444612   329.10816183
 C      1   2   3     2.837328149324    90.89531622   168.18484645
 C      1   2   3     2.837328149324   148.15947890    30.90318513
 C      4   2   1     2.917046289999    61.29327482    81.12116562
 C     15   3   1     2.815550732812    58.60965677   280.74828730
 C     17   2   1     2.815550732812   111.18020203    33.04196419
 C     15   3   1     2.924405895243    58.62536457    70.95401177
 C     15   3   1     2.924405895243   150.36231022   358.24113344
 N     12   7   5     2.789021866903   111.44049815   266.47389401
 H      2   1   3     2.021990284716    89.79353307   195.73746053
 H      2   1   3     2.022014853152   143.07771550   319.13264563
 H      3   1   2     2.021990680061    89.65615315    23.82610373
 H      3   1   2     2.022023796623   143.45442016   146.59818792
 H      4   2   1     2.022023153592   160.93593747   146.72547784
 H      4   2   1     2.022000680741    63.07526487   216.46486797
 H     29   2   1     1.480612166061   144.53757974   327.85866188
 H      5   1   2     2.022023796623   143.45442016   216.05740169
 H      6   3   1     2.022012421595   144.60621113    92.43846601
 H      6   3   1     2.022004674518    88.85454943   216.71123382
 H      7   5   1     2.022011027174    89.32899054   143.56976877
 H      7   5   1     2.021998483618   144.34071963   268.39352698
 H      8   6   3     2.022011027174   145.14812122   144.50547090
 H     37   6   3     1.407054793963   143.67472723   297.93895215
 H      9   7   5     2.022012421595   145.37731396   214.72621590
 H      9   7   5     2.022004674518    89.16961751    89.15623899
 H     10   9   7     2.022011027174   145.14812122   215.23987415
 H     43   9   7     1.407054793963   143.67472723    59.45941249
 H     40   7   5     1.407054793963   145.51898321    61.41526941
 H     11   7   5     2.022004674518   145.69949232   215.48546727
 H     12   7   5     2.021998181525   109.98974505   148.94952807
 H     13   8   6     2.021998181525   109.98974505   269.20901610
 H     14   6   3     2.021998181525   109.98974505   211.05047193
 H     15   3   1     2.021998402818   100.46117684   177.12691771
 H     16   1   2     2.021998402818   106.99375317   119.12222917
 H     17   2   1     2.021998402818   109.17093523   150.85301270
 H     18   3   1     2.022009872147   109.14085342   150.53266699
 H     19   5   1     2.022009872147   109.14085342   209.46733301
 H     20   4   2     2.022009872147   109.14085342   239.07347811
 H     21   1   2     2.022009872147   106.41038929   267.64060383
 H     22   1   2     2.022009872147   106.41038929    68.05132377
 H     23   4   2     2.022009872147   109.14085342   101.69249187
 H     26  15   3     2.022022914906   109.46620566   150.41611367
 H     31   3   1     1.480345992178   143.60831212   328.00561943
 H     34   4   2     1.488539763615   142.83582035    18.92060647
 H     27  15   3     2.022014853152   109.46008504   119.16576000

---------------------
BASIS SET INFORMATION
---------------------
There are 3 groups of distinct atoms

 Group   1 Type C   : 11s6p2d1f contracted to 5s3p2d1f pattern {62111/411/11/1}
 Group   2 Type N   : 11s6p2d1f contracted to 5s3p2d1f pattern {62111/411/11/1}
 Group   3 Type H   : 5s1p contracted to 3s1p pattern {311/1}

Atom   0C    basis set group =>   1
Atom   1C    basis set group =>   1
Atom   2C    basis set group =>   1
Atom   3C    basis set group =>   1
Atom   4C    basis set group =>   1
Atom   5C    basis set group =>   1
Atom   6C    basis set group =>   1
Atom   7C    basis set group =>   1
Atom   8C    basis set group =>   1
Atom   9C    basis set group =>   1
Atom  10C    basis set group =>   1
Atom  11C    basis set group =>   1
Atom  12C    basis set group =>   1
Atom  13C    basis set group =>   1
Atom  14C    basis set group =>   1
Atom  15C    basis set group =>   1
Atom  16C    basis set group =>   1
Atom  17C    basis set group =>   1
Atom  18C    basis set group =>   1
Atom  19C    basis set group =>   1
Atom  20C    basis set group =>   1
Atom  21C    basis set group =>   1
Atom  22C    basis set group =>   1
Atom  23C    basis set group =>   1
Atom  24C    basis set group =>   1
Atom  25C    basis set group =>   1
Atom  26C    basis set group =>   1
Atom  27N    basis set group =>   2
Atom  28H    basis set group =>   3
Atom  29H    basis set group =>   3
Atom  30H    basis set group =>   3
Atom  31H    basis set group =>   3
Atom  32H    basis set group =>   3
Atom  33H    basis set group =>   3
Atom  34H    basis set group =>   3
Atom  35H    basis set group =>   3
Atom  36H    basis set group =>   3
Atom  37H    basis set group =>   3
Atom  38H    basis set group =>   3
Atom  39H    basis set group =>   3
Atom  40H    basis set group =>   3
Atom  41H    basis set group =>   3
Atom  42H    basis set group =>   3
Atom  43H    basis set group =>   3
Atom  44H    basis set group =>   3
Atom  45H    basis set group =>   3
Atom  46H    basis set group =>   3
Atom  47H    basis set group =>   3
Atom  48H    basis set group =>   3
Atom  49H    basis set group =>   3
Atom  50H    basis set group =>   3
Atom  51H    basis set group =>   3
Atom  52H    basis set group =>   3
Atom  53H    basis set group =>   3
Atom  54H    basis set group =>   3
Atom  55H    basis set group =>   3
Atom  56H    basis set group =>   3
Atom  57H    basis set group =>   3
Atom  58H    basis set group =>   3
Atom  59H    basis set group =>   3
Atom  60H    basis set group =>   3
Atom  61H    basis set group =>   3
Atom  62H    basis set group =>   3
Atom  63H    basis set group =>   3
---------------------------------
AUXILIARY/J BASIS SET INFORMATION
---------------------------------
There are 3 groups of distinct atoms

 Group   1 Type C   : 12s5p4d2f1g contracted to 6s4p3d1f1g pattern {711111/2111/211/2/1}
 Group   2 Type N   : 12s5p4d2f1g contracted to 6s4p3d1f1g pattern {711111/2111/211/2/1}
 Group   3 Type H   : 5s2p1d contracted to 3s1p1d pattern {311/2/1}

Atom   0C    basis set group =>   1
Atom   1C    basis set group =>   1
Atom   2C    basis set group =>   1
Atom   3C    basis set group =>   1
Atom   4C    basis set group =>   1
Atom   5C    basis set group =>   1
Atom   6C    basis set group =>   1
Atom   7C    basis set group =>   1
Atom   8C    basis set group =>   1
Atom   9C    basis set group =>   1
Atom  10C    basis set group =>   1
Atom  11C    basis set group =>   1
Atom  12C    basis set group =>   1
Atom  13C    basis set group =>   1
Atom  14C    basis set group =>   1
Atom  15C    basis set group =>   1
Atom  16C    basis set group =>   1
Atom  17C    basis set group =>   1
Atom  18C    basis set group =>   1
Atom  19C    basis set group =>   1
Atom  20C    basis set group =>   1
Atom  21C    basis set group =>   1
Atom  22C    basis set group =>   1
Atom  23C    basis set group =>   1
Atom  24C    basis set group =>   1
Atom  25C    basis set group =>   1
Atom  26C    basis set group =>   1
Atom  27N    basis set group =>   2
Atom  28H    basis set group =>   3
Atom  29H    basis set group =>   3
Atom  30H    basis set group =>   3
Atom  31H    basis set group =>   3
Atom  32H    basis set group =>   3
Atom  33H    basis set group =>   3
Atom  34H    basis set group =>   3
Atom  35H    basis set group =>   3
Atom  36H    basis set group =>   3
Atom  37H    basis set group =>   3
Atom  38H    basis set group =>   3
Atom  39H    basis set group =>   3
Atom  40H    basis set group =>   3
Atom  41H    basis set group =>   3
Atom  42H    basis set group =>   3
Atom  43H    basis set group =>   3
Atom  44H    basis set group =>   3
Atom  45H    basis set group =>   3
Atom  46H    basis set group =>   3
Atom  47H    basis set group =>   3
Atom  48H    basis set group =>   3
Atom  49H    basis set group =>   3
Atom  50H    basis set group =>   3
Atom  51H    basis set group =>   3
Atom  52H    basis set group =>   3
Atom  53H    basis set group =>   3
Atom  54H    basis set group =>   3
Atom  55H    basis set group =>   3
Atom  56H    basis set group =>   3
Atom  57H    basis set group =>   3
Atom  58H    basis set group =>   3
Atom  59H    basis set group =>   3
Atom  60H    basis set group =>   3
Atom  61H    basis set group =>   3
Atom  62H    basis set group =>   3
Atom  63H    basis set group =>   3


           ************************************************************
           *        Program running with 72 parallel MPI-processes    *
           *              working on a shared directory               *
           ************************************************************
------------------------------------------------------------------------------
                           ORCA GTO INTEGRAL CALCULATION
                           -- RI-GTO INTEGRALS CHOSEN --
------------------------------------------------------------------------------

                         BASIS SET STATISTICS AND STARTUP INFO

Gaussian basis set:
 # of primitive gaussian shells          ...  776
 # of primitive gaussian functions       ... 1576
 # of contracted shells                  ...  452
 # of contracted basis functions         ... 1084
 Highest angular momentum                ...    3
 Maximum contraction depth               ...    6
Auxiliary gaussian basis set:
 # of primitive gaussian shells          ...  960
 # of primitive gaussian functions       ... 2536
 # of contracted shells                  ...  600
 # of contracted aux-basis functions     ... 1768
 Highest angular momentum                ...    4
 Maximum contraction depth               ...    7
Ratio of auxiliary to basis functions    ...  1.63
Integral package used                  ... LIBINT
 One Electron integrals                  ... done
 Ordering auxiliary basis shells         ... done
 Integral threshhold             Thresh  ...  1.000e-10
 Primitive cut-off               TCut    ...  1.000e-11
 Pre-screening matrix                    ... done
 Shell pair data                         ... 
 Ordering of the shell pairs             ... done (   0.020 sec) 85326 of 102378 pairs
 Determination of significant pairs      ... done (   0.000 sec)
 Creation of shell pair data             ... done (   0.013 sec)
 Storage of shell pair data              ... done (   0.175 sec)
 Shell pair data done in (   0.209 sec)
 Computing two index integrals           ... done
 Cholesky decomposition of the V-matrix  ... done


Timings:
 Total evaluation time                   ...   3.885 sec (  0.065 min)
 One electron matrix time                ...   1.484 sec (  0.025 min) = 38.2%
 Schwartz matrix evaluation time         ...   0.920 sec (  0.015 min) = 23.7%
 Two index repulsion integral time       ...   0.374 sec (  0.006 min) =  9.6%
 Cholesky decomposition of V             ...   0.756 sec (  0.013 min) = 19.4%
 Three index repulsion integral time     ...   0.000 sec (  0.000 min) =  0.0%



           ************************************************************
           *        Program running with 72 parallel MPI-processes    *
           *              working on a shared directory               *
           ************************************************************
-------------------------------------------------------------------------------
                                 ORCA SCF
-------------------------------------------------------------------------------

------------
SCF SETTINGS
------------
Hamiltonian:
 Density Functional     Method          .... DFT(GTOs)
 Exchange Functional    Exchange        .... PBE
   PBE kappa parameter   XKappa         ....  0.804000
   PBE mue parameter    XMuePBE         ....  0.219520
 Correlation Functional Correlation     .... PBE
   PBE beta parameter  CBetaPBE         ....  0.066725
 LDA part of GGA corr.  LDAOpt          .... PW91-LDA
 Gradients option       PostSCFGGA      .... off
   Density functional embedding theory  .... OFF
   NL short-range parameter             ....  6.400000
 RI-approximation to the Coulomb term is turned on
   Number of auxiliary basis functions  .... 1768


General Settings:
 Integral files         IntName         .... tddft
 Hartree-Fock type      HFTyp           .... RHF
 Total Charge           Charge          ....   -1
 Multiplicity           Mult            ....    1
 Number of Electrons    NEL             ....  206
 Basis Dimension        Dim             .... 1084
 Nuclear Repulsion      ENuc            ....   3308.0182243876 Eh

Convergence Acceleration:
 DIIS                   CNVDIIS         .... on
   Start iteration      DIISMaxIt       ....    12
   Startup error        DIISStart       ....  0.200000
   # of expansion vecs  DIISMaxEq       ....     5
   Bias factor          DIISBfac        ....   1.050
   Max. coefficient     DIISMaxC        ....  10.000
 Newton-Raphson         CNVNR           .... off
 SOSCF                  CNVSOSCF        .... on
   Start iteration      SOSCFMaxIt      ....   150
   Startup grad/error   SOSCFStart      ....  0.003300
 Level Shifting         CNVShift        .... on
   Level shift para.    LevelShift      ....    0.2500
   Turn off err/grad.   ShiftErr        ....    0.0010
 Zerner damping         CNVZerner       .... off
 Static damping         CNVDamp         .... on
   Fraction old density DampFac         ....    0.7000
   Max. Damping (<1)    DampMax         ....    0.9800
   Min. Damping (>=0)   DampMin         ....    0.0000
   Turn off err/grad.   DampErr         ....    0.1000
 Fernandez-Rico         CNVRico         .... off

SCF Procedure:
 Maximum # iterations   MaxIter         ....   125
 SCF integral mode      SCFMode         .... Direct
   Integral package                     .... LIBINT
 Reset frequency        DirectResetFreq ....    20
 Integral Threshold     Thresh          ....  1.000e-10 Eh
 Primitive CutOff       TCut            ....  1.000e-11 Eh

Convergence Tolerance:
 Convergence Check Mode ConvCheckMode   .... Total+1el-Energy
 Convergence forced     ConvForced      .... 1
 Energy Change          TolE            ....  1.000e-06 Eh
 1-El. energy change                    ....  1.000e-03 Eh
 Orbital Gradient       TolG            ....  5.000e-05
 Orbital Rotation angle TolX            ....  5.000e-05
 DIIS Error             TolErr          ....  1.000e-06


Diagonalization of the overlap matrix:
Smallest eigenvalue                        ... 6.642e-06
Time for diagonalization                   ...    0.524 sec
Threshold for overlap eigenvalues          ... 1.000e-08
Number of eigenvalues below threshold      ... 0
Time for construction of square roots      ...    0.501 sec
Total time needed                          ...    1.032 sec

-------------------
DFT GRID GENERATION
-------------------

General Integration Accuracy     IntAcc      ...  4.340
Radial Grid Type                 RadialGrid  ... Gauss-Chebyshev
Angular Grid (max. acc.)         AngularGrid ... Lebedev-110
Angular grid pruning method      GridPruning ... 3 (G Style)
Weight generation scheme         WeightScheme... Becke
Basis function cutoff            BFCut       ...    1.0000e-10
Integration weight cutoff        WCut        ...    1.0000e-14
Grids for H and He will be reduced by one unit

# of grid points (after initial pruning)     ...  74998 (   0.0 sec)
# of grid points (after weights+screening)   ...  61989 (   0.1 sec)
nearest neighbour list constructed           ...    0.0 sec
Grid point re-assignment to atoms done       ...    0.0 sec
Grid point division into batches done        ...    0.0 sec
Reduced shell lists constructed in    0.1 sec

Total number of grid points                  ...    61989
Total number of batches                      ...      994
Average number of points per batch           ...       62
Average number of grid points per atom       ...      969
Average number of shells per batch           ...   297.07 (65.72%)
Average number of basis functions per batch  ...   761.07 (70.21%)
Average number of large shells per batch     ...   220.87 (74.35%)
Average number of large basis fcns per batch ...   552.33 (72.57%)
Maximum spatial batch extension              ...   2.42,  2.38,  2.29 au
Average spatial batch extension              ...   0.03,  0.02,  0.03 au

Time for grid setup =    0.746 sec

------------------------------
INITIAL GUESS: MODEL POTENTIAL
------------------------------
Loading Hartree-Fock densities                     ... done
Calculating cut-offs                               ... done
Setting up the integral package                    ... done
Initializing the effective Hamiltonian             ... done
Starting the Coulomb interaction                   ... done (   0.2 sec)
Reading the grid                                   ... done
Mapping shells                                     ... done
Starting the XC term evaluation                    ... done (   0.4 sec)
  promolecular density results
     # of electrons  =    205.185177663
     EX              =   -156.165875079
     EC              =     -7.175375995
     EX+EC           =   -163.341251074
Transforming the Hamiltonian                       ... done (   0.2 sec)
Diagonalizing the Hamiltonian                      ... done (   0.3 sec)
Back transforming the eigenvectors                 ... done (   0.1 sec)
Now organizing SCF variables                       ... done
                      ------------------
                      INITIAL GUESS DONE (   2.1 sec)
                      ------------------
--------------
SCF ITERATIONS
--------------
ITER       Energy         Delta-E        Max-DP      RMS-DP      [F,P]     Damp
               ***  Starting incremental Fock matrix formation  ***
  0  -1102.4204014574   0.000000000000 5.76301059  0.06486799  0.1522174 0.7000
  1  -1102.8762582201  -0.455856762722 3.56482851  0.03638251  0.0539558 0.7000
                               ***Turning on DIIS***
  2  -1102.9322641830  -0.056005962939 2.82003927  0.03729414  0.0394325 0.0000
  3  -1103.1907379805  -0.258473797470 2.73696824  0.02808894  0.0864380 0.0000
  4  -1103.2964983695  -0.105760389029 1.13459703  0.01102474  0.0395626 0.0000
  5  -1103.3227991585  -0.026300788997 0.51452908  0.00421601  0.0199710 0.0000
  6  -1103.3328594325  -0.010060274011 0.34630300  0.00332519  0.0036767 0.0000
  7  -1103.3344675661  -0.001608133625 0.20433443  0.00202886  0.0044947 0.0000
  8  -1103.3354949381  -0.001027371929 2.45633156  0.02603256  0.0009730 0.0000
  9  -1103.0723912499   0.263103688145 0.00037710  0.00000421  0.1099341 0.7000
 10  -1103.0719884148   0.000402835107 0.00055616  0.00000532  0.1099988 0.7000
 11  -1103.0714456731   0.000542741733 0.00078658  0.00000635  0.1101302 0.7000
 12  -1103.0709750503   0.000470622824 0.00200970  0.00001927  0.1102925 0.7000
 13  -1103.0710269141  -0.000051863801 0.68971721  0.00599568  0.1104862 0.7000
 14  -1103.2447274624  -0.173700548311 1.78708353  0.01485234  0.0155617 0.0000
 15  -1103.1123757623   0.132351700036 0.06092312  0.00051859  0.1409771 0.7000
 16  -1103.1532749639  -0.040899201558 0.08551958  0.00072655  0.1253635 0.7000
 17  -1103.1947814516  -0.041506487666 0.10542982  0.00083351  0.1085820 0.7000
 18  -1103.2285972957  -0.033815844135 0.39280930  0.00300101  0.0937359 0.0000
 19  -1103.3044994950  -0.075902199316 0.44059042  0.00287516  0.0523219 0.0000
               *** Restarting incremental Fock matrix formation ***
                                   *** Resetting DIIS ***
 20  -1103.3405538020  -0.036054307001 0.46761277  0.00417438  0.0150107 0.0000
 21  -1103.3356552639   0.004898538088 0.10711119  0.00088368  0.0232037 0.0000
 22  -1103.3454700040  -0.009814740102 0.05023795  0.00047090  0.0095244 0.0000
 23  -1103.3476718208  -0.002201816736 0.02391415  0.00031010  0.0036428 0.0000
                      *** Initiating the SOSCF procedure ***
                           *** Shutting down DIIS ***
                      *** Re-Reading the Fockian *** 
                      *** Removing any level shift *** 
ITER      Energy       Delta-E        Grad      Rot      Max-DP    RMS-DP
 24  -1103.34800276  -0.0003309355  0.001126  0.001126  0.015805  0.000175
               *** Restarting incremental Fock matrix formation ***
 25  -1103.34811183  -0.0001090699  0.001019  0.007838  0.030384  0.000380
 26  -1103.34811094   0.0000008883  0.001406  0.019394  0.050968  0.000482
 27  -1103.34806147   0.0000494653  0.002719  0.017762  0.037432  0.000373
 28  -1103.34812154  -0.0000600720  0.000418  0.004963  0.025027  0.000274
 29  -1103.34810451   0.0000170329  0.001062  0.007083  0.018117  0.000227
 30  -1103.34812349  -0.0000189756  0.001062  0.007585  0.033627  0.000357
 31  -1103.34808402   0.0000394674  0.000751  0.007941  0.025982  0.000293
 32  -1103.34814392  -0.0000599018  0.000154  0.001626  0.023205  0.000228
 33  -1103.34813073   0.0000131965  0.000405  0.001570  0.020452  0.000205
 34  -1103.34814563  -0.0000149052  0.000067  0.000659  0.006849  0.000063
 35  -1103.34814334   0.0000022881  0.000103  0.000578  0.004978  0.000042
 36  -1103.34814633  -0.0000029878  0.000016  0.000073  0.001239  0.000009
 37  -1103.34814618   0.0000001481  0.000028  0.000037  0.001041  0.000005
                 **** Energy Check signals convergence ****
              ***Rediagonalizing the Fockian in SOSCF/NRSCF***

               *****************************************************
               *                     SUCCESS                       *
               *           SCF CONVERGED AFTER  38 CYCLES          *
               *****************************************************

Setting up the final grid:

General Integration Accuracy     IntAcc      ...  4.670
Radial Grid Type                 RadialGrid  ... Gauss-Chebyshev
Angular Grid (max. acc.)         AngularGrid ... Lebedev-302
Angular grid pruning method      GridPruning ... 3 (G Style)
Weight generation scheme         WeightScheme... Becke
Basis function cutoff            BFCut       ...    1.0000e-10
Integration weight cutoff        WCut        ...    1.0000e-14
Grids for H and He will be reduced by one unit

# of grid points (after initial pruning)     ... 296120 (   0.0 sec)
# of grid points (after weights+screening)   ... 239339 (   0.2 sec)
nearest neighbour list constructed           ...    0.0 sec
Grid point re-assignment to atoms done       ...    0.0 sec
Grid point division into batches done        ...    0.8 sec
Reduced shell lists constructed in    1.0 sec

Total number of grid points                  ...   239339
Total number of batches                      ...     3766
Average number of points per batch           ...       63
Average number of grid points per atom       ...     3740
Average number of shells per batch           ...   296.72 (65.65%)
Average number of basis functions per batch  ...   754.02 (69.56%)
Average number of large shells per batch     ...   217.07 (73.16%)
Average number of large basis fcns per batch ...   533.26 (70.72%)
Maximum spatial batch extension              ...   1.70,  1.65,  1.70 au
Average spatial batch extension              ...   0.02,  0.02,  0.02 au

Final grid set up in    1.4 sec
Final integration                            ... done (   1.0 sec)
Change in XC energy                          ...     0.028494756
Integrated number of electrons               ...   206.009400178
Previous integrated no of electrons          ...   206.160672556

----------------
TOTAL SCF ENERGY
----------------

Total Energy       :        -1103.31965176 Eh          -30022.85406 eV

Components:
Nuclear Repulsion  :         3308.01822439 Eh           90015.75220 eV
Electronic Energy  :        -4411.33787614 Eh         -120038.60625 eV
One Electron Energy:        -8103.99596701 Eh         -220520.94133 eV
Two Electron Energy:         3692.65809086 Eh          100482.33508 eV

Virial components:
Potential Energy   :        -2205.75837143 Eh          -60021.73673 eV
Kinetic Energy     :         1102.43871967 Eh           29998.88268 eV
Virial Ratio       :            2.00079908


DFT components:
N(Alpha)           :      103.004700089216 electrons
N(Beta)            :      103.004700089216 electrons
N(Total)           :      206.009400178432 electrons
E(X)               :     -159.921895358548 Eh       
E(C)               :       -7.067035566790 Eh       
E(XC)              :     -166.988930925338 Eh       
DFET-embed. en.    :        0.000000000000 Eh       

---------------
SCF CONVERGENCE
---------------

  Last Energy change         ...   -3.3143e-07  Tolerance :   1.0000e-06
  Last MAX-Density change    ...    6.8253e-04  Tolerance :   1.0000e-05
  Last RMS-Density change    ...    5.1992e-06  Tolerance :   1.0000e-06
  Last Orbital Gradient      ...    2.8449e-06  Tolerance :   5.0000e-05
  Last Orbital Rotation      ...    1.9693e-05  Tolerance :   5.0000e-05

             **** THE GBW FILE WAS UPDATED (tddft.gbw) ****
             **** DENSITY FILE WAS UPDATED (tddft.scfp) ****
             **** ENERGY FILE WAS UPDATED (tddft.en.tmp) ****
             **** THE GBW FILE WAS UPDATED (tddft.gbw) ****
             **** DENSITY FILE WAS UPDATED (tddft.scfp) ****
----------------
ORBITAL ENERGIES
----------------

  NO   OCC          E(Eh)            E(eV) 
   0   2.0000     -13.840401      -376.6165 
   1   2.0000      -9.788095      -266.3476 
   2   2.0000      -9.788090      -266.3475 
   3   2.0000      -9.785642      -266.2809 
   4   2.0000      -9.759640      -265.5733 
   5   2.0000      -9.759519      -265.5700 
   6   2.0000      -9.757069      -265.5034 
   7   2.0000      -9.750932      -265.3364 
   8   2.0000      -9.744770      -265.1687 
   9   2.0000      -9.744654      -265.1655 
  10   2.0000      -9.741641      -265.0835 
  11   2.0000      -9.741007      -265.0663 
  12   2.0000      -9.740710      -265.0582 
  13   2.0000      -9.740598      -265.0551 
  14   2.0000      -9.737216      -264.9631 
  15   2.0000      -9.737212      -264.9630 
  16   2.0000      -9.732383      -264.8316 
  17   2.0000      -9.732049      -264.8225 
  18   2.0000      -9.731747      -264.8143 
  19   2.0000      -9.731415      -264.8053 
  20   2.0000      -9.727362      -264.6950 
  21   2.0000      -9.727356      -264.6948 
  22   2.0000      -9.724272      -264.6109 
  23   2.0000      -9.724262      -264.6106 
  24   2.0000      -9.722119      -264.5523 
  25   2.0000      -9.718709      -264.4595 
  26   2.0000      -9.700320      -263.9591 
  27   2.0000      -9.700311      -263.9589 
  28   2.0000      -0.730396       -19.8751 
  29   2.0000      -0.670124       -18.2350 
  30   2.0000      -0.654400       -17.8071 
  31   2.0000      -0.650862       -17.7109 
  32   2.0000      -0.611226       -16.6323 
  33   2.0000      -0.598860       -16.2958 
  34   2.0000      -0.598747       -16.2927 
  35   2.0000      -0.583289       -15.8721 
  36   2.0000      -0.581773       -15.8309 
  37   2.0000      -0.546639       -14.8748 
  38   2.0000      -0.523148       -14.2356 
  39   2.0000      -0.521967       -14.2034 
  40   2.0000      -0.519431       -14.1344 
  41   2.0000      -0.518867       -14.1191 
  42   2.0000      -0.512217       -13.9381 
  43   2.0000      -0.498416       -13.5626 
  44   2.0000      -0.445326       -12.1179 
  45   2.0000      -0.444629       -12.0990 
  46   2.0000      -0.425259       -11.5719 
  47   2.0000      -0.406870       -11.0715 
  48   2.0000      -0.406816       -11.0700 
  49   2.0000      -0.400417       -10.8959 
  50   2.0000      -0.398275       -10.8376 
  51   2.0000      -0.385796       -10.4980 
  52   2.0000      -0.383292       -10.4299 
  53   2.0000      -0.359548        -9.7838 
  54   2.0000      -0.358902        -9.7662 
  55   2.0000      -0.357452        -9.7268 
  56   2.0000      -0.346865        -9.4387 
  57   2.0000      -0.314305        -8.5527 
  58   2.0000      -0.311239        -8.4693 
  59   2.0000      -0.309276        -8.4158 
  60   2.0000      -0.301586        -8.2066 
  61   2.0000      -0.299692        -8.1550 
  62   2.0000      -0.283896        -7.7252 
  63   2.0000      -0.279771        -7.6130 
  64   2.0000      -0.279357        -7.6017 
  65   2.0000      -0.278583        -7.5806 
  66   2.0000      -0.275534        -7.4977 
  67   2.0000      -0.247307        -6.7296 
  68   2.0000      -0.241771        -6.5789 
  69   2.0000      -0.239290        -6.5114 
  70   2.0000      -0.232487        -6.3263 
  71   2.0000      -0.230725        -6.2783 
  72   2.0000      -0.228126        -6.2076 
  73   2.0000      -0.225602        -6.1389 
  74   2.0000      -0.215258        -5.8575 
  75   2.0000      -0.214186        -5.8283 
  76   2.0000      -0.212116        -5.7720 
  77   2.0000      -0.198333        -5.3969 
  78   2.0000      -0.191388        -5.2079 
  79   2.0000      -0.190266        -5.1774 
  80   2.0000      -0.180504        -4.9118 
  81   2.0000      -0.180056        -4.8996 
  82   2.0000      -0.175360        -4.7718 
  83   2.0000      -0.170131        -4.6295 
  84   2.0000      -0.166556        -4.5322 
  85   2.0000      -0.161262        -4.3881 
  86   2.0000      -0.161008        -4.3812 
  87   2.0000      -0.158837        -4.3222 
  88   2.0000      -0.155435        -4.2296 
  89   2.0000      -0.149706        -4.0737 
  90   2.0000      -0.146531        -3.9873 
  91   2.0000      -0.135600        -3.6899 
  92   2.0000      -0.122429        -3.3315 
  93   2.0000      -0.118190        -3.2161 
  94   2.0000      -0.098926        -2.6919 
  95   2.0000      -0.093609        -2.5472 
  96   2.0000      -0.092657        -2.5213 
  97   2.0000      -0.072446        -1.9714 
  98   2.0000      -0.060692        -1.6515 
  99   2.0000      -0.058235        -1.5847 
 100   2.0000      -0.056722        -1.5435 
 101   2.0000       0.006469         0.1760 
 102   2.0000       0.073522         2.0006 
 103   0.0000       0.057292         1.5590 
 104   0.0000       0.115066         3.1311 
 105   0.0000       0.133205         3.6247 
 106   0.0000       0.135599         3.6898 
 107   0.0000       0.137217         3.7339 
 108   0.0000       0.144172         3.9231 
 109   0.0000       0.147149         4.0041 
 110   0.0000       0.149780         4.0757 
 111   0.0000       0.154518         4.2047 
 112   0.0000       0.158534         4.3139 
 113   0.0000       0.159753         4.3471 
 114   0.0000       0.167203         4.5498 
 115   0.0000       0.167858         4.5677 
 116   0.0000       0.169177         4.6035 
 117   0.0000       0.183435         4.9915 
 118   0.0000       0.184800         5.0287 
 119   0.0000       0.186170         5.0659 
 120   0.0000       0.186930         5.0866 
 121   0.0000       0.198636         5.4052 
 122   0.0000       0.199466         5.4278 
 123   0.0000       0.199734         5.4351 
 124   0.0000       0.201080         5.4717 
 125   0.0000       0.201874         5.4933 
 126   0.0000       0.222864         6.0644 
 127   0.0000       0.223066         6.0699 
 128   0.0000       0.224115         6.0985 
 129   0.0000       0.224281         6.1030 
 130   0.0000       0.231819         6.3081 
 131   0.0000       0.232023         6.3137 
 132   0.0000       0.233728         6.3601 
 133   0.0000       0.242830         6.6077 
 134   0.0000       0.247351         6.7308 
 135   0.0000       0.248444         6.7605 
 136   0.0000       0.260805         7.0969 
 137   0.0000       0.262184         7.1344 
 138   0.0000       0.262819         7.1517 
 139   0.0000       0.264825         7.2063 
 140   0.0000       0.265337         7.2202 
 141   0.0000       0.270400         7.3580 
 142   0.0000       0.274044         7.4571 
 143   0.0000       0.274645         7.4735 
 144   0.0000       0.275981         7.5098 
 145   0.0000       0.276477         7.5233 
 146   0.0000       0.287525         7.8240 
 147   0.0000       0.288727         7.8567 
 148   0.0000       0.288929         7.8622 
 149   0.0000       0.297893         8.1061 
 150   0.0000       0.297927         8.1070 
 151   0.0000       0.299836         8.1589 
 152   0.0000       0.304948         8.2981 
 153   0.0000       0.306825         8.3491 
 154   0.0000       0.309521         8.4225 
 155   0.0000       0.314751         8.5648 
 156   0.0000       0.315380         8.5819 
 157   0.0000       0.323991         8.8163 
 158   0.0000       0.325186         8.8488 
 159   0.0000       0.328203         8.9309 
 160   0.0000       0.331123         9.0103 
 161   0.0000       0.347953         9.4683 
 162   0.0000       0.350129         9.5275 
 163   0.0000       0.351567         9.5666 
 164   0.0000       0.366324         9.9682 
 165   0.0000       0.366612         9.9760 
 166   0.0000       0.368384        10.0242 
 167   0.0000       0.370112        10.0713 
 168   0.0000       0.374133        10.1807 
 169   0.0000       0.377575        10.2743 
 170   0.0000       0.388249        10.5648 
 171   0.0000       0.389881        10.6092 
 172   0.0000       0.390174        10.6172 
 173   0.0000       0.392047        10.6681 
 174   0.0000       0.394097        10.7239 
 175   0.0000       0.401825        10.9342 
 176   0.0000       0.404113        10.9965 
 177   0.0000       0.406137        11.0515 
 178   0.0000       0.411919        11.2089 
 179   0.0000       0.413769        11.2592 
 180   0.0000       0.415258        11.2997 
 181   0.0000       0.420135        11.4324 
 182   0.0000       0.427580        11.6350 
 183   0.0000       0.433754        11.8030 
 184   0.0000       0.435031        11.8378 
 185   0.0000       0.441721        12.0198 
 186   0.0000       0.441788        12.0217 
 187   0.0000       0.443045        12.0559 
 188   0.0000       0.449571        12.2334 
 189   0.0000       0.450689        12.2639 
 190   0.0000       0.450886        12.2692 
 191   0.0000       0.453625        12.3438 
 192   0.0000       0.455063        12.3829 
 193   0.0000       0.458093        12.4653 
 194   0.0000       0.464241        12.6326 
 195   0.0000       0.466694        12.6994 
 196   0.0000       0.468355        12.7446 
 197   0.0000       0.469226        12.7683 
 198   0.0000       0.477778        13.0010 
 199   0.0000       0.480999        13.0887 
 200   0.0000       0.483395        13.1539 
 201   0.0000       0.486218        13.2307 
 202   0.0000       0.487256        13.2589 
 203   0.0000       0.488601        13.2955 
 204   0.0000       0.496689        13.5156 
 205   0.0000       0.499442        13.5905 
 206   0.0000       0.500230        13.6120 
 207   0.0000       0.507886        13.8203 
 208   0.0000       0.508751        13.8438 
 209   0.0000       0.509590        13.8666 
 210   0.0000       0.514507        14.0005 
 211   0.0000       0.516350        14.0506 
 212   0.0000       0.518841        14.1184 
 213   0.0000       0.520402        14.1609 
 214   0.0000       0.520881        14.1739 
 215   0.0000       0.522665        14.2224 
 216   0.0000       0.523437        14.2434 
 217   0.0000       0.524157        14.2630 
 218   0.0000       0.532733        14.4964 
 219   0.0000       0.544823        14.8254 
 220   0.0000       0.544863        14.8265 
 221   0.0000       0.551229        14.9997 
 222   0.0000       0.553122        15.0512 
 223   0.0000       0.553738        15.0680 
 224   0.0000       0.554704        15.0943 
 225   0.0000       0.555002        15.1024 
 226   0.0000       0.555752        15.1228 
 227   0.0000       0.556512        15.1434 
 228   0.0000       0.556840        15.1524 
 229   0.0000       0.559101        15.2139 
 230   0.0000       0.560592        15.2545 
 231   0.0000       0.561716        15.2851 
 232   0.0000       0.563724        15.3397 
 233   0.0000       0.565529        15.3888 
 234   0.0000       0.567496        15.4424 
 235   0.0000       0.568552        15.4711 
 236   0.0000       0.568960        15.4822 
 237   0.0000       0.577060        15.7026 
 238   0.0000       0.579259        15.7624 
 239   0.0000       0.582942        15.8627 
 240   0.0000       0.592529        16.1235 
 241   0.0000       0.592822        16.1315 
 242   0.0000       0.594480        16.1766 
 243   0.0000       0.597672        16.2635 
 244   0.0000       0.599723        16.3193 
 245   0.0000       0.600098        16.3295 
 246   0.0000       0.615762        16.7557 
 247   0.0000       0.618823        16.8390 
 248   0.0000       0.621584        16.9141 
 249   0.0000       0.622411        16.9367 
 250   0.0000       0.625232        17.0134 
 251   0.0000       0.627770        17.0825 
 252   0.0000       0.635318        17.2879 
 253   0.0000       0.638280        17.3685 
 254   0.0000       0.643732        17.5168 
 255   0.0000       0.663926        18.0663 
 256   0.0000       0.664979        18.0950 
 257   0.0000       0.665110        18.0986 
 258   0.0000       0.668312        18.1857 
 259   0.0000       0.671894        18.2832 
 260   0.0000       0.672668        18.3042 
 261   0.0000       0.673872        18.3370 
 262   0.0000       0.688380        18.7318 
 263   0.0000       0.691653        18.8208 
 264   0.0000       0.692246        18.8370 
 265   0.0000       0.708635        19.2829 
 266   0.0000       0.718895        19.5621 
 267   0.0000       0.721580        19.6352 
 268   0.0000       0.722859        19.6700 
 269   0.0000       0.735191        20.0056 
 270   0.0000       0.735788        20.0218 
 271   0.0000       0.737125        20.0582 
 272   0.0000       0.739941        20.1348 
 273   0.0000       0.745082        20.2747 
 274   0.0000       0.745728        20.2923 
 275   0.0000       0.749789        20.4028 
 276   0.0000       0.749905        20.4059 
 277   0.0000       0.752499        20.4765 
 278   0.0000       0.775107        21.0917 
 279   0.0000       0.775717        21.1083 
 280   0.0000       0.793168        21.5832 
 281   0.0000       0.793890        21.6028 
 282   0.0000       0.797606        21.7040 
 283   0.0000       0.798785        21.7360 
 284   0.0000       0.800904        21.7937 
 285   0.0000       0.804981        21.9047 
 286   0.0000       0.805109        21.9081 
 287   0.0000       0.808383        21.9972 
 288   0.0000       0.809167        22.0186 
 289   0.0000       0.829128        22.5617 
 290   0.0000       0.830150        22.5895 
 291   0.0000       0.831663        22.6307 
 292   0.0000       0.833950        22.6929 
 293   0.0000       0.834087        22.6967 
 294   0.0000       0.839895        22.8547 
 295   0.0000       0.848245        23.0819 
 296   0.0000       0.849291        23.1104 
 297   0.0000       0.854981        23.2652 
 298   0.0000       0.855831        23.2884 
 299   0.0000       0.856288        23.3008 
 300   0.0000       0.869140        23.6505 
 301   0.0000       0.872929        23.7536 
 302   0.0000       0.876356        23.8469 
 303   0.0000       0.876792        23.8587 
 304   0.0000       0.880197        23.9514 
 305   0.0000       0.882089        24.0029 
 306   0.0000       0.895245        24.3609 
 307   0.0000       0.896567        24.3968 
 308   0.0000       0.901737        24.5375 
 309   0.0000       0.904869        24.6227 
 310   0.0000       0.906560        24.6688 
 311   0.0000       0.909099        24.7378 
 312   0.0000       0.910251        24.7692 
 313   0.0000       0.917872        24.9766 
 314   0.0000       0.919417        25.0186 
 315   0.0000       0.922178        25.0937 
 316   0.0000       0.933550        25.4032 
 317   0.0000       0.937173        25.5018 
 318   0.0000       0.945837        25.7375 
 319   0.0000       0.953058        25.9340 
 320   0.0000       0.954170        25.9643 
 321   0.0000       0.966874        26.3100 
 322   0.0000       0.969811        26.3899 
 323   0.0000       0.970451        26.4073 
 324   0.0000       0.996744        27.1228 
 325   0.0000       0.997027        27.1305 
 326   0.0000       1.002814        27.2880 
 327   0.0000       1.005376        27.3577 
 328   0.0000       1.007615        27.4186 
 329   0.0000       1.008635        27.4464 
 330   0.0000       1.021666        27.8009 
 331   0.0000       1.022329        27.8190 
 332   0.0000       1.023564        27.8526 
 333   0.0000       1.025410        27.9028 
 334   0.0000       1.025549        27.9066 
 335   0.0000       1.027960        27.9722 
 336   0.0000       1.044131        28.4122 
 337   0.0000       1.044190        28.4138 
 338   0.0000       1.046382        28.4735 
 339   0.0000       1.047237        28.4968 
 340   0.0000       1.048411        28.5287 
 341   0.0000       1.054266        28.6880 
 342   0.0000       1.063823        28.9481 
 343   0.0000       1.078010        29.3341 
 344   0.0000       1.079290        29.3690 
 345   0.0000       1.080037        29.3893 
 346   0.0000       1.083375        29.4801 
 347   0.0000       1.087232        29.5851 
 348   0.0000       1.088698        29.6250 
 349   0.0000       1.110320        30.2134 
 350   0.0000       1.114359        30.3232 
 351   0.0000       1.126738        30.6601 
 352   0.0000       1.144102        31.1326 
 353   0.0000       1.145620        31.1739 
 354   0.0000       1.149753        31.2864 
 355   0.0000       1.151865        31.3438 
 356   0.0000       1.160131        31.5688 
 357   0.0000       1.160826        31.5877 
 358   0.0000       1.175290        31.9813 
 359   0.0000       1.180296        32.1175 
 360   0.0000       1.183953        32.2170 
 361   0.0000       1.233649        33.5693 
 362   0.0000       1.234946        33.6046 
 363   0.0000       1.237194        33.6658 
 364   0.0000       1.239851        33.7380 
 365   0.0000       1.243411        33.8349 
 366   0.0000       1.243735        33.8438 
 367   0.0000       1.245343        33.8875 
 368   0.0000       1.246994        33.9324 
 369   0.0000       1.247813        33.9547 
 370   0.0000       1.254766        34.1439 
 371   0.0000       1.254872        34.1468 
 372   0.0000       1.261289        34.3214 
 373   0.0000       1.279166        34.8079 
 374   0.0000       1.279955        34.8294 
 375   0.0000       1.287918        35.0460 
 376   0.0000       1.296030        35.2668 
 377   0.0000       1.296388        35.2765 
 378   0.0000       1.299300        35.3558 
 379   0.0000       1.300018        35.3753 
 380   0.0000       1.304046        35.4849 
 381   0.0000       1.319100        35.8945 
 382   0.0000       1.320672        35.9373 
 383   0.0000       1.321320        35.9550 
 384   0.0000       1.324668        36.0460 
 385   0.0000       1.349011        36.7085 
 386   0.0000       1.351117        36.7658 
 387   0.0000       1.351424        36.7741 
 388   0.0000       1.358603        36.9695 
 389   0.0000       1.358959        36.9792 
 390   0.0000       1.363531        37.1036 
 391   0.0000       1.366140        37.1745 
 392   0.0000       1.366544        37.1856 
 393   0.0000       1.368986        37.2520 
 394   0.0000       1.370934        37.3050 
 395   0.0000       1.373966        37.3875 
 396   0.0000       1.374812        37.4105 
 397   0.0000       1.375600        37.4320 
 398   0.0000       1.376487        37.4561 
 399   0.0000       1.381661        37.5969 
 400   0.0000       1.401746        38.1434 
 401   0.0000       1.403170        38.1822 
 402   0.0000       1.405395        38.2427 
 403   0.0000       1.406377        38.2695 
 404   0.0000       1.409103        38.3436 
 405   0.0000       1.410424        38.3796 
 406   0.0000       1.416793        38.5529 
 407   0.0000       1.422396        38.7054 
 408   0.0000       1.423818        38.7441 
 409   0.0000       1.445816        39.3427 
 410   0.0000       1.445892        39.3447 
 411   0.0000       1.454141        39.5692 
 412   0.0000       1.459277        39.7089 
 413   0.0000       1.460761        39.7493 
 414   0.0000       1.463313        39.8188 
 415   0.0000       1.470827        40.0232 
 416   0.0000       1.470886        40.0248 
 417   0.0000       1.480497        40.2864 
 418   0.0000       1.480617        40.2896 
 419   0.0000       1.484302        40.3899 
 420   0.0000       1.491467        40.5849 
 421   0.0000       1.491907        40.5968 
 422   0.0000       1.493676        40.6450 
 423   0.0000       1.499183        40.7949 
 424   0.0000       1.499416        40.8012 
 425   0.0000       1.521193        41.3938 
 426   0.0000       1.525538        41.5120 
 427   0.0000       1.528449        41.5912 
 428   0.0000       1.533113        41.7181 
 429   0.0000       1.539778        41.8995 
 430   0.0000       1.542200        41.9654 
 431   0.0000       1.547176        42.1008 
 432   0.0000       1.554698        42.3055 
 433   0.0000       1.555055        42.3152 
 434   0.0000       1.564871        42.5823 
 435   0.0000       1.578902        42.9641 
 436   0.0000       1.580860        43.0174 
 437   0.0000       1.581033        43.0221 
 438   0.0000       1.583077        43.0777 
 439   0.0000       1.586073        43.1592 
 440   0.0000       1.588586        43.2276 
 441   0.0000       1.591230        43.2996 
 442   0.0000       1.597491        43.4700 
 443   0.0000       1.599060        43.5126 
 444   0.0000       1.600964        43.5644 
 445   0.0000       1.603933        43.6452 
 446   0.0000       1.604201        43.6525 
 447   0.0000       1.606862        43.7249 
 448   0.0000       1.613426        43.9036 
 449   0.0000       1.614134        43.9228 
 450   0.0000       1.623662        44.1821 
 451   0.0000       1.628679        44.3186 
 452   0.0000       1.634444        44.4755 
 453   0.0000       1.634901        44.4879 
 454   0.0000       1.649310        44.8800 
 455   0.0000       1.655986        45.0617 
 456   0.0000       1.656148        45.0661 
 457   0.0000       1.709165        46.5087 
 458   0.0000       1.718265        46.7564 
 459   0.0000       1.721196        46.8361 
 460   0.0000       1.729224        47.0546 
 461   0.0000       1.730065        47.0775 
 462   0.0000       1.738396        47.3042 
 463   0.0000       1.740998        47.3750 
 464   0.0000       1.753084        47.7038 
 465   0.0000       1.755748        47.7763 
 466   0.0000       1.766776        48.0764 
 467   0.0000       1.769311        48.1454 
 468   0.0000       1.774858        48.2963 
 469   0.0000       1.787569        48.6422 
 470   0.0000       1.788463        48.6665 
 471   0.0000       1.792713        48.7822 
 472   0.0000       1.794945        48.8429 
 473   0.0000       1.795281        48.8521 
 474   0.0000       1.803014        49.0625 
 475   0.0000       1.808625        49.2152 
 476   0.0000       1.810472        49.2654 
 477   0.0000       1.810924        49.2778 
 478   0.0000       1.837057        49.9889 
 479   0.0000       1.838108        50.0175 
 480   0.0000       1.851589        50.3843 
 481   0.0000       1.851665        50.3864 
 482   0.0000       1.853897        50.4471 
 483   0.0000       1.863078        50.6969 
 484   0.0000       1.887107        51.3508 
 485   0.0000       1.898527        51.6615 
 486   0.0000       1.901243        51.7354 
 487   0.0000       1.901889        51.7530 
 488   0.0000       1.907171        51.8968 
 489   0.0000       1.907912        51.9169 
 490   0.0000       1.918413        52.2027 
 491   0.0000       1.928916        52.4885 
 492   0.0000       1.929950        52.5166 
 493   0.0000       1.934185        52.6319 
 494   0.0000       1.936338        52.6904 
 495   0.0000       1.971489        53.6469 
 496   0.0000       1.977565        53.8123 
 497   0.0000       1.990643        54.1681 
 498   0.0000       1.991798        54.1996 
 499   0.0000       1.999885        54.4196 
 500   0.0000       2.011484        54.7353 
 501   0.0000       2.014821        54.8261 
 502   0.0000       2.014922        54.8288 
 503   0.0000       2.039387        55.4945 
 504   0.0000       2.048004        55.7290 
 505   0.0000       2.048863        55.7524 
 506   0.0000       2.062845        56.1329 
 507   0.0000       2.075080        56.4658 
 508   0.0000       2.078168        56.5498 
 509   0.0000       2.083205        56.6869 
 510   0.0000       2.087412        56.8014 
 511   0.0000       2.095210        57.0136 
 512   0.0000       2.095546        57.0227 
 513   0.0000       2.101010        57.1714 
 514   0.0000       2.101747        57.1914 
 515   0.0000       2.103675        57.2439 
 516   0.0000       2.104672        57.2710 
 517   0.0000       2.113699        57.5167 
 518   0.0000       2.113840        57.5205 
 519   0.0000       2.115842        57.5750 
 520   0.0000       2.121811        57.7374 
 521   0.0000       2.121836        57.7381 
 522   0.0000       2.133737        58.0619 
 523   0.0000       2.136932        58.1489 
 524   0.0000       2.139196        58.2105 
 525   0.0000       2.157789        58.7164 
 526   0.0000       2.158221        58.7282 
 527   0.0000       2.160972        58.8030 
 528   0.0000       2.170449        59.0609 
 529   0.0000       2.170734        59.0687 
 530   0.0000       2.184730        59.4495 
 531   0.0000       2.192282        59.6550 
 532   0.0000       2.193465        59.6872 
 533   0.0000       2.197483        59.7965 
 534   0.0000       2.203077        59.9488 
 535   0.0000       2.205147        60.0051 
 536   0.0000       2.228629        60.6441 
 537   0.0000       2.232218        60.7417 
 538   0.0000       2.232296        60.7439 
 539   0.0000       2.237063        60.8736 
 540   0.0000       2.240185        60.9585 
 541   0.0000       2.241645        60.9983 
 542   0.0000       2.244566        61.0777 
 543   0.0000       2.261086        61.5273 
 544   0.0000       2.262315        61.5607 
 545   0.0000       2.266193        61.6663 
 546   0.0000       2.269735        61.7626 
 547   0.0000       2.270813        61.7920 
 548   0.0000       2.281585        62.0851 
 549   0.0000       2.291946        62.3670 
 550   0.0000       2.292426        62.3801 
 551   0.0000       2.300750        62.6066 
 552   0.0000       2.302826        62.6631 
 553   0.0000       2.303037        62.6688 
 554   0.0000       2.305625        62.7393 
 555   0.0000       2.306550        62.7644 
 556   0.0000       2.308409        62.8150 
 557   0.0000       2.320527        63.1447 
 558   0.0000       2.325489        63.2798 
 559   0.0000       2.325721        63.2861 
 560   0.0000       2.341062        63.7035 
 561   0.0000       2.342211        63.7348 
 562   0.0000       2.346030        63.8387 
 563   0.0000       2.346378        63.8482 
 564   0.0000       2.354323        64.0644 
 565   0.0000       2.375187        64.6321 
 566   0.0000       2.377990        64.7084 
 567   0.0000       2.389043        65.0092 
 568   0.0000       2.392675        65.1080 
 569   0.0000       2.413529        65.6755 
 570   0.0000       2.414245        65.6949 
 571   0.0000       2.420001        65.8516 
 572   0.0000       2.420461        65.8641 
 573   0.0000       2.423531        65.9476 
 574   0.0000       2.428145        66.0732 
 575   0.0000       2.433883        66.2293 
 576   0.0000       2.435816        66.2819 
 577   0.0000       2.449542        66.6554 
 578   0.0000       2.451045        66.6963 
 579   0.0000       2.452028        66.7231 
 580   0.0000       2.456257        66.8382 
 581   0.0000       2.463066        67.0234 
 582   0.0000       2.463199        67.0271 
 583   0.0000       2.472115        67.2697 
 584   0.0000       2.475790        67.3697 
 585   0.0000       2.493772        67.8590 
 586   0.0000       2.494786        67.8866 
 587   0.0000       2.502087        68.0852 
 588   0.0000       2.503058        68.1117 
 589   0.0000       2.503261        68.1172 
 590   0.0000       2.536536        69.0227 
 591   0.0000       2.537331        69.0443 
 592   0.0000       2.546046        69.2814 
 593   0.0000       2.550438        69.4010 
 594   0.0000       2.550624        69.4060 
 595   0.0000       2.558363        69.6166 
 596   0.0000       2.566342        69.8337 
 597   0.0000       2.568191        69.8840 
 598   0.0000       2.580957        70.2314 
 599   0.0000       2.587740        70.4160 
 600   0.0000       2.590873        70.5012 
 601   0.0000       2.594000        70.5863 
 602   0.0000       2.594230        70.5926 
 603   0.0000       2.595882        70.6375 
 604   0.0000       2.601973        70.8033 
 605   0.0000       2.621455        71.3334 
 606   0.0000       2.622747        71.3686 
 607   0.0000       2.631593        71.6093 
 608   0.0000       2.633160        71.6519 
 609   0.0000       2.634386        71.6853 
 610   0.0000       2.636642        71.7467 
 611   0.0000       2.646227        72.0075 
 612   0.0000       2.658774        72.3489 
 613   0.0000       2.659225        72.3612 
 614   0.0000       2.667559        72.5880 
 615   0.0000       2.669077        72.6293 
 616   0.0000       2.669797        72.6489 
 617   0.0000       2.672318        72.7175 
 618   0.0000       2.674431        72.7750 
 619   0.0000       2.675355        72.8001 
 620   0.0000       2.676112        72.8207 
 621   0.0000       2.678369        72.8821 
 622   0.0000       2.680856        72.9498 
 623   0.0000       2.696034        73.3628 
 624   0.0000       2.697085        73.3914 
 625   0.0000       2.698757        73.4369 
 626   0.0000       2.706819        73.6563 
 627   0.0000       2.716735        73.9261 
 628   0.0000       2.717460        73.9459 
 629   0.0000       2.719037        73.9888 
 630   0.0000       2.736697        74.4693 
 631   0.0000       2.740679        74.5777 
 632   0.0000       2.746390        74.7331 
 633   0.0000       2.746410        74.7336 
 634   0.0000       2.760212        75.1092 
 635   0.0000       2.765991        75.2664 
 636   0.0000       2.769480        75.3614 
 637   0.0000       2.771189        75.4079 
 638   0.0000       2.772610        75.4466 
 639   0.0000       2.777903        75.5906 
 640   0.0000       2.778220        75.5992 
 641   0.0000       2.781633        75.6921 
 642   0.0000       2.796977        76.1096 
 643   0.0000       2.797038        76.1113 
 644   0.0000       2.799372        76.1748 
 645   0.0000       2.803125        76.2769 
 646   0.0000       2.805144        76.3319 
 647   0.0000       2.806181        76.3601 
 648   0.0000       2.826315        76.9079 
 649   0.0000       2.832387        77.0732 
 650   0.0000       2.833239        77.0964 
 651   0.0000       2.837523        77.2129 
 652   0.0000       2.841143        77.3114 
 653   0.0000       2.847914        77.4957 
 654   0.0000       2.849979        77.5519 
 655   0.0000       2.864538        77.9480 
 656   0.0000       2.866329        77.9968 
 657   0.0000       2.867449        78.0273 
 658   0.0000       2.867961        78.0412 
 659   0.0000       2.869771        78.0905 
 660   0.0000       2.884030        78.4784 
 661   0.0000       2.884753        78.4981 
 662   0.0000       2.886466        78.5447 
 663   0.0000       2.900622        78.9299 
 664   0.0000       2.922176        79.5164 
 665   0.0000       2.923563        79.5542 
 666   0.0000       2.931233        79.7629 
 667   0.0000       2.938438        79.9590 
 668   0.0000       2.939405        79.9853 
 669   0.0000       2.951535        80.3154 
 670   0.0000       2.952206        80.3336 
 671   0.0000       2.957459        80.4766 
 672   0.0000       2.959666        80.5366 
 673   0.0000       2.963897        80.6517 
 674   0.0000       2.964991        80.6815 
 675   0.0000       2.973044        80.9006 
 676   0.0000       2.977770        81.0293 
 677   0.0000       2.979084        81.0650 
 678   0.0000       2.979434        81.0745 
 679   0.0000       2.985278        81.2336 
 680   0.0000       2.987023        81.2810 
 681   0.0000       2.987559        81.2956 
 682   0.0000       2.991611        81.4059 
 683   0.0000       2.993947        81.4695 
 684   0.0000       3.006794        81.8190 
 685   0.0000       3.014141        82.0190 
 686   0.0000       3.016855        82.0928 
 687   0.0000       3.021381        82.2160 
 688   0.0000       3.026597        82.3579 
 689   0.0000       3.027342        82.3782 
 690   0.0000       3.039739        82.7155 
 691   0.0000       3.043843        82.8272 
 692   0.0000       3.045046        82.8599 
 693   0.0000       3.061758        83.3147 
 694   0.0000       3.063279        83.3561 
 695   0.0000       3.067549        83.4722 
 696   0.0000       3.070999        83.5661 
 697   0.0000       3.072304        83.6016 
 698   0.0000       3.074228        83.6540 
 699   0.0000       3.085701        83.9662 
 700   0.0000       3.087796        84.0232 
 701   0.0000       3.097578        84.2894 
 702   0.0000       3.098291        84.3088 
 703   0.0000       3.109835        84.6229 
 704   0.0000       3.116574        84.8063 
 705   0.0000       3.117195        84.8232 
 706   0.0000       3.118590        84.8612 
 707   0.0000       3.126623        85.0797 
 708   0.0000       3.136939        85.3604 
 709   0.0000       3.138488        85.4026 
 710   0.0000       3.140319        85.4524 
 711   0.0000       3.143757        85.5460 
 712   0.0000       3.144126        85.5560 
 713   0.0000       3.147819        85.6565 
 714   0.0000       3.150858        85.7392 
 715   0.0000       3.170107        86.2630 
 716   0.0000       3.174247        86.3757 
 717   0.0000       3.177482        86.4637 
 718   0.0000       3.191349        86.8410 
 719   0.0000       3.192590        86.8748 
 720   0.0000       3.205994        87.2395 
 721   0.0000       3.207413        87.2781 
 722   0.0000       3.208472        87.3070 
 723   0.0000       3.209598        87.3376 
 724   0.0000       3.222729        87.6949 
 725   0.0000       3.224407        87.7406 
 726   0.0000       3.232180        87.9521 
 727   0.0000       3.233887        87.9985 
 728   0.0000       3.234029        88.0024 
 729   0.0000       3.235981        88.0555 
 730   0.0000       3.250094        88.4395 
 731   0.0000       3.252868        88.5150 
 732   0.0000       3.257684        88.6461 
 733   0.0000       3.261508        88.7502 
 734   0.0000       3.262134        88.7672 
 735   0.0000       3.266237        88.8788 
 736   0.0000       3.270234        88.9876 
 737   0.0000       3.272635        89.0529 
 738   0.0000       3.281653        89.2983 
 739   0.0000       3.301503        89.8385 
 740   0.0000       3.301758        89.8454 
 741   0.0000       3.306859        89.9842 
 742   0.0000       3.313775        90.1724 
 743   0.0000       3.314235        90.1849 
 744   0.0000       3.319926        90.3398 
 745   0.0000       3.322358        90.4060 
 746   0.0000       3.325554        90.4929 
 747   0.0000       3.330059        90.6155 
 748   0.0000       3.333169        90.7001 
 749   0.0000       3.347350        91.0860 
 750   0.0000       3.348389        91.1143 
 751   0.0000       3.348776        91.1248 
 752   0.0000       3.358223        91.3819 
 753   0.0000       3.360918        91.4552 
 754   0.0000       3.363348        91.5214 
 755   0.0000       3.367202        91.6262 
 756   0.0000       3.370879        91.7263 
 757   0.0000       3.378794        91.9417 
 758   0.0000       3.381901        92.0262 
 759   0.0000       3.388461        92.2047 
 760   0.0000       3.389551        92.2344 
 761   0.0000       3.390512        92.2605 
 762   0.0000       3.405242        92.6614 
 763   0.0000       3.417007        92.9815 
[...]
         1      5    (   0.00 ,    0.39 )    (   0.00 ,   -0.39 )    (  -0.00 ,    0.00 )
         2      0    (   0.00 ,   -1.92 )    (   0.00 ,    1.92 )    (  -0.00 ,   -0.00 )
         2      1    (   0.00 ,   -0.98 )    (   0.00 ,   -0.99 )    (  -0.00 ,   -1.62 )
         2      2    (   0.00 ,   -0.11 )    (   0.00 ,   -0.11 )    (  -0.00 ,   -0.22 )
         2      3    (   0.00 ,   -0.12 )    (   0.00 ,   -0.12 )    (  -0.00 ,   -0.54 )
         2      4    (   0.00 ,    0.07 )    (   0.00 ,   -0.07 )    (  -0.00 ,    0.00 )
         2      5    (   0.00 ,   -0.05 )    (   0.00 ,   -0.05 )    (  -0.00 ,   -0.37 )
         3      0    (   0.00 ,   -0.36 )    (   0.00 ,   -0.36 )    (  -0.00 ,   -0.33 )
         3      1    (   0.00 ,    0.38 )    (   0.00 ,   -0.38 )    (  -0.00 ,    0.00 )
         3      2    (   0.00 ,    0.08 )    (   0.00 ,   -0.08 )    (  -0.00 ,    0.00 )
         3      3    (   0.00 ,   -0.49 )    (   0.00 ,    0.50 )    (  -0.00 ,   -0.01 )
         3      4    (   0.00 ,    0.32 )    (   0.00 ,    0.32 )    (  -0.00 ,    0.34 )
         3      5    (   0.00 ,   -0.31 )    (   0.00 ,    0.32 )    (  -0.00 ,   -0.01 )
         4      0    (   0.00 ,    0.58 )    (   0.00 ,    0.58 )    (  -0.00 ,    1.84 )
         4      1    (   0.00 ,   -1.66 )    (   0.00 ,    1.67 )    (  -0.00 ,   -0.00 )
         4      2    (   0.00 ,    0.36 )    (   0.00 ,   -0.37 )    (  -0.00 ,    0.01 )
         4      3    (   0.00 ,    0.70 )    (   0.00 ,   -0.70 )    (  -0.00 ,    0.00 )
         4      4    (   0.00 ,   -0.64 )    (   0.00 ,   -0.63 )    (  -0.00 ,   -1.84 )
         4      5    (   0.00 ,    1.82 )    (   0.00 ,   -1.81 )    (  -0.00 ,   -0.00 )
         5      0    (   0.00 ,   -0.32 )    (   0.00 ,    0.30 )    (  -0.00 ,    0.00 )
         5      1    (   0.00 ,    2.18 )    (   0.00 ,    2.19 )    (  -0.00 ,   -1.50 )
         5      2    (   0.00 ,   -0.49 )    (   0.00 ,   -0.49 )    (  -0.00 ,   -0.88 )
         5      3    (   0.00 ,    0.34 )    (   0.00 ,    0.33 )    (  -0.00 ,    2.67 )
         5      4    (   0.00 ,    0.03 )    (   0.00 ,   -0.03 )    (  -0.00 ,    0.00 )
         5      5    (   0.00 ,   -0.68 )    (   0.00 ,   -0.67 )    (  -0.00 ,    0.16 )

SOC stabilization of the ground state: -6639.9350 cm-1
Eigenvalues of the SOC matrix:

   State:        cm-1         eV
     0:          0.00         0.0000
     1:          0.00         0.0000
     2:          0.00         0.0000
     3:       6639.93         0.8232
     4:      12711.18         1.5760
     5:      14435.24         1.7897
     6:      14435.24         1.7897
     7:      14435.24         1.7897
     8:      15445.13         1.9150
     9:      15445.13         1.9150
    10:      15445.13         1.9150
    11:      16393.65         2.0326
    12:      19561.03         2.4253
    13:      19561.04         2.4253
    14:      19561.08         2.4253
    15:      19716.48         2.4445
    16:      19716.57         2.4445
    17:      19716.57         2.4445
    18:      19895.58         2.4667
    19:      20882.17         2.5891
    20:      21402.43         2.6536

The threshold for printing is 0.0100
Eigenvectors of the SOC matrix:

             E(cm-1)  Weight      Real         Imag     : Root  Spin  Ms
 STATE  0:      0.00
                      0.38683     -0.62195     -0.00342 : 1     1     0
                      0.30659     -0.43846     -0.33814 : 1     1    -1
                      0.30659      0.44215     -0.33330 : 1     1     1
 STATE  1:      0.00
                      0.50148     -0.17279      0.68674 : 1     1     0
                      0.24926      0.12295     -0.48389 : 1     1    -1
                      0.24926     -0.12070      0.48445 : 1     1     1
 STATE  2:      0.00
                      0.11170      0.33421      0.00069 : 1     1     0
                      0.44415      0.23975     -0.62183 : 1     1    -1
                      0.44415     -0.23719     -0.62281 : 1     1     1
 STATE  3:   6639.93
                      1.00000      0.01015      0.99995 : 0     0     0
 STATE  4:  12711.18
                      1.00000     -0.56621      0.82426 : 1     0     0
 STATE  5:  14435.24
                      0.26342      0.28073     -0.42967 : 2     1     0
                      0.36829      0.60572     -0.03738 : 2     1    -1
                      0.36829      0.20906      0.56972 : 2     1     1
 STATE  6:  14435.24
                      0.50150      0.68807     -0.16748 : 2     1     0
                      0.24925     -0.48543      0.11666 : 2     1    -1
                      0.24925      0.48474     -0.11948 : 2     1     1
 STATE  7:  14435.24
                      0.23508      0.27146      0.40174 : 2     1     0
                      0.38246      0.61843     -0.00107 : 2     1    -1
                      0.38246      0.23171     -0.57338 : 2     1     1
 STATE  8:  15445.13
                      0.07655      0.27653     -0.00894 : 3     1     0
                      0.46173      0.24499      0.63380 : 3     1    -1
                      0.46173     -0.20354      0.64830 : 3     1     1
 STATE  9:  15445.13
                      0.51138     -0.29017     -0.65359 : 3     1     0
                      0.24431      0.21739      0.44391 : 3     1    -1
                      0.24431     -0.18346     -0.45897 : 3     1     1
 STATE 10:  15445.13
                      0.41208      0.64016      0.04761 : 3     1     0
                      0.29396      0.47431     -0.26266 : 3     1    -1
                      0.29396     -0.43024     -0.32993 : 3     1     1
 STATE 11:  16393.65
                      1.00000     -0.87126     -0.49083 : 2     0     0
 STATE 12:  19561.03
                      0.49989      0.58781      0.39290 : 4     1     0
                      0.24988     -0.41626     -0.27678 : 4     1    -1
                      0.24988      0.41492      0.27878 : 4     1     1
 STATE 13:  19561.04
                      0.40916     -0.63966      0.00187 : 4     1     0
                      0.29525     -0.45397     -0.29861 : 4     1    -1
                      0.29525      0.45221     -0.30126 : 4     1     1
 STATE 14:  19561.08
                      0.09064      0.29743      0.04660 : 4     1     0
                      0.45468      0.30794     -0.59988 : 4     1    -1
                      0.45468     -0.10969     -0.66532 : 4     1     1
 STATE 15:  19716.48
                      0.05284      0.05358     -0.22353 : 5     1     0
                      0.47347     -0.61331     -0.31197 : 5     1    -1
                      0.47347     -0.68809      0.00000 : 5     1     1
 STATE 16:  19716.57
                      0.45125      0.60455      0.29287 : 5     1     0
                      0.27421      0.32458      0.41092 : 5     1    -1
                      0.27421     -0.52365      0.00000 : 5     1     1
 STATE 17:  19716.57
                      0.49561     -0.70399      0.00081 : 5     1     0
                      0.25203      0.50202     -0.00115 : 5     1    -1
                      0.25203     -0.50203      0.00000 : 5     1     1
 STATE 18:  19895.58
                      0.99976     -0.99194     -0.12573 : 3     0     0
 STATE 19:  20882.17
                      1.00000      0.02153     -0.99977 : 4     0     0
 STATE 20:  21402.43
                      1.00000      0.22969     -0.97326 : 5     0     0

-----------------------------
TD-DFT/TDA-EXCITATION SPECTRA
-----------------------------

Center of mass = ( 13.4773, 13.4773, 13.4773)
Calculating the Dipole integrals                  ... done
Transforming integrals                            ... done
Calculating the Linear Momentum integrals         ... done
Transforming integrals                            ... done
Calculating angular momentum integrals            ... done
Transforming integrals                            ... done

-----------------------------------------------------------------------------
         ABSORPTION SPECTRUM VIA TRANSITION ELECTRIC DIPOLE MOMENTS
-----------------------------------------------------------------------------
State   Energy    Wavelength  fosc         T2        TX        TY        TZ  
        (cm-1)      (nm)                 (au**2)    (au)      (au)      (au) 
-----------------------------------------------------------------------------
   1    6071.2   1647.1   0.052743439   2.86000   1.19598  -0.00011  -1.19567
   2    9753.7   1025.3   0.081037543   2.73522   1.16962  -0.00051  -1.16928
   3   13255.6    754.4   0.018956152   0.47079   0.48496  -0.00046  -0.48539
   4   14242.2    702.1   0.010003706   0.23124   0.15636   0.42716   0.15596
   5   14762.5    677.4   0.002672185   0.05959   0.17230  -0.00028  -0.17293
   6   -6639.9   -1506.0   spin forbidden (mult=3)
   7    7795.3   1282.8   spin forbidden (mult=3)
   8    8805.2   1135.7   spin forbidden (mult=3)
   9   12921.2    773.9   spin forbidden (mult=3)
  10   13076.6    764.7   spin forbidden (mult=3)

-----------------------------------------------------------------------------
         ABSORPTION SPECTRUM VIA TRANSITION VELOCITY DIPOLE MOMENTS
-----------------------------------------------------------------------------
State   Energy    Wavelength   fosc        P2         PX        PY        PZ  
        (cm-1)      (nm)                 (au**2)     (au)      (au)      (au) 
-----------------------------------------------------------------------------
   1    6071.2   1647.1   3.603205151   0.14951   0.27341   0.00000  -0.27342
   2    9753.7   1025.3   0.676868063   0.04512   0.15024  -0.00009  -0.15017
   3   13255.6    754.4   0.052394383   0.00475   0.04870  -0.00004  -0.04873
   4   14242.2    702.1   0.015426607   0.00150   0.02429   0.01792   0.02430
   5   14762.5    677.4   0.047360504   0.00478   0.04886  -0.00000  -0.04890
   6   -6639.9   -1506.0   spin forbidden (mult=3)
   7    7795.3   1282.8   spin forbidden (mult=3)
   8    8805.2   1135.7   spin forbidden (mult=3)
   9   12921.2    773.9   spin forbidden (mult=3)
  10   13076.6    764.7   spin forbidden (mult=3)

-------------------------------------------------------------------
                             CD SPECTRUM
-------------------------------------------------------------------
State  Energy     Wavelength     R         MX        MY        MZ   
       (cm-1)       (nm)     (1e40*cgs)   (au)      (au)      (au)  
-------------------------------------------------------------------
   1    6071.2   1647.1     -0.00040   0.31172   0.18594   0.31179
   2    9753.7   1025.3     -0.17085   0.04589   0.08937   0.04617
   3   13255.6    754.4     -0.05505   0.05310  -0.10626   0.05339
   4   14242.2    702.1      0.00624   0.05353  -0.00011  -0.05328
   5   14762.5    677.4      0.04866  -0.13453  -0.03212  -0.13459
   6   -6639.9   -1506.0 spin forbidden
   7    7795.3   1282.8 spin forbidden
   8    8805.2   1135.7 spin forbidden
   9   12921.2    773.9 spin forbidden
  10   13076.6    764.7 spin forbidden

-------------------------------------------
SOC CORRECTED TD-DFT/TDA-EXCITATION SPECTRA
--------------------------------------------

-----------------------------------------------------------------------------
  SOC CORRECTED ABSORPTION SPECTRUM VIA TRANSITION ELECTRIC DIPOLE MOMENTS*  
-----------------------------------------------------------------------------
State   Energy  Wavelength   fosc         T2         TX        TY        TZ  
        (cm-1)    (nm)                  (au**2)     (au)      (au)      (au) 
-----------------------------------------------------------------------------
   1       0.0   11515730271.4   0.000000000   0.00000   0.00000   0.00000   0.00000
   2       0.0   9083016654.0   0.000000000   0.00000   0.00000   0.00000   0.00000
   3    6639.9   1506.0   0.000000012   0.00000   0.00030   0.00063   0.00030
   4   12711.2    786.7   0.000000005   0.00000   0.00026   0.00000   0.00026
   5   14435.2    692.7   0.091089786   2.07741   1.01912   0.00002   1.01921
   6   14435.2    692.7   0.000000014   0.00000   0.00024   0.00050   0.00013
   7   14435.2    692.7   0.006670578   0.15213   0.27579   0.00000   0.27581
   8   15445.1    647.5   0.044653034   0.95178   0.31864   0.86516   0.31898
   9   15445.1    647.5   0.000034549   0.00074   0.00867   0.02406   0.00906
  10   15445.1    647.5   0.025031566   0.53355   0.23833   0.64793   0.23860
  11   16393.6    610.0   0.000000017   0.00000   0.00041   0.00000   0.00041
  12   19561.0    511.2   0.000002714   0.00005   0.00491   0.00016   0.00464
  13   19561.0    511.2   0.030013967   0.50513   0.36006   0.49540   0.36065
  14   19561.1    511.2   0.000095424   0.00161   0.02024   0.02802   0.02027
  15   19716.5    507.2   0.000219343   0.00366   0.04289   0.00011   0.04270
  16   19716.6    507.2   0.007849128   0.13106   0.25657   0.00061   0.25540
  17   19716.6    507.2   0.000009854   0.00016   0.00548   0.00885   0.00749
  18   19895.6    502.6   0.000000224   0.00000   0.00136   0.00000   0.00136
  19   20882.2    478.9   0.000000010   0.00000   0.00027   0.00001   0.00027
  20   21402.4    467.2   0.000000004   0.00000   0.00018   0.00000   0.00018

-----------------------------------------------------------------------------
  SOC CORRECTED ABSORPTION SPECTRUM VIA TRANSITION VELOCITY DIPOLE MOMENTS*  
-----------------------------------------------------------------------------
State   Energy  Wavelength   fosc         P2         PX        PY        PZ  
        (cm-1)    (nm)                  (au**2)     (au)      (au)      (au) 
-----------------------------------------------------------------------------
   1       0.0   11515730271.4   0.164603585   0.00000   0.00002   0.00000   0.00002
   2       0.0   9083016654.0   0.002339090   0.00000   0.00000   0.00000   0.00000
   3    6639.9   1506.0   0.000000000   0.00000   0.00000   0.00000   0.00000
   4   12711.2    786.7   0.000000279   0.00000   0.00011   0.00000   0.00011
   5   14435.2    692.7   0.132603523   0.01308   0.08088   0.00001   0.08088
   6   14435.2    692.7   0.000000005   0.00000   0.00002   0.00001   0.00001
   7   14435.2    692.7   0.009710730   0.00096   0.02189   0.00000   0.02189
   8   15445.1    647.5   0.040637692   0.00429   0.01993   0.05912   0.01992
   9   15445.1    647.5   0.000031442   0.00000   0.00054   0.00164   0.00057
  10   15445.1    647.5   0.022783550   0.00241   0.01493   0.04426   0.01492
  11   16393.6    610.0   0.000000047   0.00000   0.00005   0.00000   0.00005
  12   19561.0    511.2   0.000001164   0.00000   0.00029   0.00001   0.00027
  13   19561.0    511.2   0.028536203   0.00382   0.02964   0.04533   0.02969
  14   19561.1    511.2   0.000091020   0.00001   0.00167   0.00256   0.00168
  15   19716.5    507.2   0.000090376   0.00001   0.00248   0.00001   0.00246
  16   19716.6    507.2   0.003226301   0.00043   0.01479   0.00005   0.01470
  17   19716.6    507.2   0.000009216   0.00000   0.00048   0.00081   0.00059
  18   19895.6    502.6   0.000000039   0.00000   0.00005   0.00000   0.00005
  19   20882.2    478.9   0.000000001   0.00000   0.00001   0.00001   0.00001
  20   21402.4    467.2   0.000000001   0.00000   0.00001   0.00000   0.00001

-------------------------------------------------------------------
                    SOC CORRECTED CD SPECTRUM*                     
-------------------------------------------------------------------
State   Energy Wavelength       R         MX        MY        MZ   
        (cm-1)   (nm)       (1e40*sgs)   (au)      (au)      (au)  
-------------------------------------------------------------------
   1       0.0   11515730271.4      0.00000   0.00001   0.00006   0.00001
   2       0.0   9083016654.0      0.00000   0.00001   0.00000   0.00001
   3    6639.9   1506.0      0.00000   0.00000   0.00000   0.00000
   4   12711.2    786.7      0.00000   0.00017   0.00006   0.00017
   5   14435.2    692.7      0.06947   0.06294   0.20614   0.06280
   6   14435.2    692.7      0.00001   0.00000   0.00004   0.00002
   7   14435.2    692.7      0.00507   0.01703   0.05579   0.01699
   8   15445.1    647.5      0.05309   0.02159   0.00009   0.02167
   9   15445.1    647.5      0.00035   0.00060   0.00004   0.00061
  10   15445.1    647.5      0.02944   0.01616   0.00007   0.01621
  11   16393.6    610.0      0.00000   0.00001   0.00003   0.00001
  12   19561.0    511.2      0.00002   0.00145   0.00180   0.00148
  13   19561.0    511.2      0.00887   0.04423   0.00001   0.04409
  14   19561.1    511.2      0.00003   0.00251   0.00000   0.00250
  15   19716.5    507.2      0.00224   0.01336   0.01628   0.01334
  16   19716.6    507.2      0.07953   0.07983   0.09709   0.07977
  17   19716.6    507.2      0.00043   0.00112   0.00038   0.00049
  18   19895.6    502.6      0.00000   0.00040   0.00042   0.00040
  19   20882.2    478.9      0.00000   0.00002   0.00000   0.00002
  20   21402.4    467.2      0.00000   0.00000   0.00004   0.00000

*The X,Y and Z components are the absolute values of the complex numbers

Total run time:      164.385 sec

           *** ORCA-CIS/TD-DFT FINISHED WITHOUT ERROR ***

---------------------------
SOC CIS/TD-DFT TOTAL ENERGY
---------------------------

    E(SCF)        =  -1103.319651757 Eh
    E(SOC CIS)    =     -0.030253766 Eh (SOC Root  1)
    ----------------------------- ---------
    E(tot)        =  -1103.349905523 Eh


-------------------------   --------------------
FINAL SINGLE POINT ENERGY     -1103.349905522846
-------------------------   --------------------


                            ***************************************
                            *     ORCA property calculations      *
                            ***************************************

                                    ---------------------
                                    Active property flags
                                    ---------------------
   (+) Dipole Moment


------------------------------------------------------------------------------
                       ORCA ELECTRIC PROPERTIES CALCULATION
------------------------------------------------------------------------------

Dipole Moment Calculation                       ... on
Quadrupole Moment Calculation                   ... off
Polarizability Calculation                      ... off
GBWName                                         ... tddft.gbw
Electron density file                           ... tddft.scfp
The origin for moment calculation is the CENTER OF MASS  = (13.477258, 13.477285 13.477257)

-------------
DIPOLE MOMENT
-------------
                                X             Y             Z
Electronic contribution:     -0.27212      -1.38569      -0.27168
Nuclear contribution   :      0.18839       0.19299       0.18822
                        -----------------------------------------
Total Dipole Moment    :     -0.08373      -1.19271      -0.08346
                        -----------------------------------------
Magnitude (a.u.)       :      1.19855
Magnitude (Debye)      :      3.04647



--------------------
Rotational spectrum 
--------------------
 
Rotational constants in cm-1:     0.009246     0.009141     0.009141 
Rotational constants in MHz :   277.183012   274.048569   274.045290 

 Dipole components along the rotational axes: 
x,y,z [a.u.] :    -0.784459     0.906151    -0.006277 
x,y,z [Debye]:    -1.993935     2.303252    -0.015954 

 

Timings for individual modules:

Sum of individual times         ...      338.476 sec (=   5.641 min)
GTO integral calculation        ...       15.161 sec (=   0.253 min)   4.5 %
SCF iterations                  ...      147.918 sec (=   2.465 min)  43.7 %
CIS module                      ...      175.397 sec (=   2.923 min)  51.8 %
                             ****ORCA TERMINATED NORMALLY****
TOTAL RUN TIME: 0 days 0 hours 5 minutes 59 seconds 13 msec
