
     Program PWSCF v.6.1 (svn rev. 13369) starts on  1Jun2021 at 13:36:40 

     This program is part of the open-source Quantum ESPRESSO suite
     for quantum simulation of materials; please cite
         "P. Giannozzi et al., J. Phys.:Condens. Matter 21 395502 (2009);
          URL http://www.quantum-espresso.org", 
     in publications or presentations arising from this work. More details at
     http://www.quantum-espresso.org/quote

     Parallel version (MPI), running on    32 processors
     K-points division:     npool     =       2
     R & G space division:  proc/nbgrp/npool/nimage =      16
     Reading input from scf.in
Warning: card &IONS ignored
Warning: card / ignored

     Current dimensions of program PWSCF are:
     Max number of different atomic species (ntypx) = 10
     Max number of k-points (npk) =  40000
     Max angular momentum in pseudopotentials (lmaxx) =  3
     Message from routine setup:
     the system is metallic, specify occupations

     Subspace diagonalization in iterative solution of the eigenvalue problem:
     one sub-group per band group will be used
     scalapack distributed-memory algorithm (size of sub-group:  4*  4 procs)

 
     Parallelization info
     --------------------
     sticks:   dense  smooth     PW     G-vecs:    dense   smooth      PW
     Min         766     766    191                91100    91100   11396
     Max         767     767    193                91105    91105   11399
     Sum       12259   12259   3067              1457633  1457633  182351
 


     bravais-lattice index     =            0
     lattice parameter (alat)  =      28.4285  a.u.
     unit-cell volume          =   26452.5957 (a.u.)^3
     number of atoms/cell      =           71
     number of atomic types    =            2
     number of electrons       =       285.00 (up: 143.00, down: 142.00)
     number of Kohn-Sham states=          151
     kinetic-energy cutoff     =      55.0000  Ry
     charge density cutoff     =     220.0000  Ry
     convergence threshold     =      1.0E-08
     mixing beta               =       0.7000
     number of iterations used =            8  plain     mixing
     Exchange-correlation      = PBE ( 1  4  3  4 0 0)

     celldm(1)=  28.428530  celldm(2)=   0.000000  celldm(3)=   0.000000
     celldm(4)=   0.000000  celldm(5)=   0.000000  celldm(6)=   0.000000

     crystal axes: (cart. coord. in units of alat)
               a(1) = (   1.000000   0.000000   0.000000 )  
               a(2) = (  -0.500000   0.866025   0.000000 )  
               a(3) = (   0.000000   0.000000   1.329458 )  

     reciprocal axes: (cart. coord. in units 2 pi/alat)
               b(1) = (  1.000000  0.577350  0.000000 )  
               b(2) = (  0.000000  1.154701  0.000000 )  
               b(3) = (  0.000000  0.000000  0.752187 )  


     PseudoPot. # 1 for B  read from file:
     /export/data/share/tjsmart/Pseudo/B_ONCV_PBE-1.0.upf
     MD5 check sum: a9fd2462c33df863cd3ce8a66ea40380
     Pseudo is Norm-conserving, Zval =  3.0
     Generated using ONCVPSP code by D. R. Hamann
     Using radial grid of 1534 points,  4 beta functions with: 
                l(1) =   0
                l(2) =   0
                l(3) =   1
                l(4) =   1

     PseudoPot. # 2 for N  read from file:
     /export/data/share/tjsmart/Pseudo/N_ONCV_PBE-1.0.upf
     MD5 check sum: 09890da6b2972017450f7114a6086fad
     Pseudo is Norm-conserving, Zval =  5.0
     Generated using ONCVPSP code by D. R. Hamann
     Using radial grid of 1058 points,  4 beta functions with: 
                l(1) =   0
                l(2) =   0
                l(3) =   1
                l(4) =   1

     atomic species   valence    mass     pseudopotential
        B              3.00    10.81100     B ( 1.00)
        N              5.00    14.00670     N ( 1.00)

     Starting magnetic structure 
     atomic species   magnetization
        B            0.500
        N            0.500

      2 Sym. Ops. (no inversion) found



   Cartesian axes

     site n.     atom                  positions (alat units)
         1           B   tau(   1) = (   0.0847146   0.0483612   0.0000000  )
         2           B   tau(   2) = (   0.0023582   0.1918086   0.0000000  )
         3           B   tau(   3) = (  -0.0835956   0.3355820   0.0000000  )
         4           B   tau(   4) = (  -0.1699707   0.4799089   0.0000000  )
         5           B   tau(   5) = (  -0.2535376   0.6241906   0.0000000  )
         6           B   tau(   6) = (  -0.3350839   0.7685837   0.0000000  )
         7           B   tau(   7) = (   0.2500897   0.0504200   0.0000000  )
         8           B   tau(   8) = (   0.1711180   0.1989048   0.0000000  )
         9           B   tau(   9) = (   0.0823262   0.3383769   0.0000000  )
        10           B   tau(  10) = (  -0.0047764   0.4813103   0.0000000  )
        11           B   tau(  11) = (  -0.0872646   0.6255220   0.0000000  )
        12           B   tau(  12) = (  -0.1692289   0.7701506   0.0000000  )
        13           B   tau(  13) = (   0.4158132   0.0489993   0.0000000  )
        14           B   tau(  14) = (   0.3333836   0.1981796   0.0000000  )
        15           B   tau(  15) = (   0.2548911   0.3583561   0.0000000  )
        16           B   tau(  16) = (   0.1587316   0.4834863   0.0000000  )
        17           B   tau(  17) = (   0.0788408   0.6261365   0.0000000  )
        18           B   tau(  18) = (  -0.0024817   0.7699530   0.0000000  )
        19           B   tau(  19) = (   0.5846895   0.0450353   0.0000000  )
        20           B   tau(  20) = (   0.5066921   0.1880118   0.0000000  )
        21           N   tau(  21) = (   0.4265696   0.3288431   0.0000000  )
        22           B   tau(  22) = (   0.3152225   0.4629337   0.0000000  )
        23           B   tau(  23) = (   0.2461873   0.6222505   0.0000000  )
        24           B   tau(  24) = (   0.1656836   0.7673005   0.0000000  )
        25           B   tau(  25) = (   0.7520926   0.0438505   0.0000000  )
        26           B   tau(  26) = (   0.6716351   0.1873808   0.0000000  )
        27           B   tau(  27) = (   0.5885468   0.3298440   0.0000000  )
        28           B   tau(  28) = (   0.4931046   0.4749441   0.0000000  )
        29           B   tau(  29) = (   0.4113975   0.6152069   0.0000000  )
        30           B   tau(  30) = (   0.3331579   0.7647861   0.0000000  )
        31           B   tau(  31) = (   0.9181814   0.0450352   0.0000000  )
        32           B   tau(  32) = (   0.8361565   0.1894749   0.0000000  )
        33           B   tau(  33) = (   0.7514104   0.3338631   0.0000000  )
        34           B   tau(  34) = (   0.6634980   0.4780907   0.0000000  )
        35           B   tau(  35) = (   0.5794159   0.6208999   0.0000000  )
        36           B   tau(  36) = (   0.4986143   0.7652712   0.0000000  )
        37           N   tau(  37) = (   0.0010873   0.0949927   0.0000000  )
        38           N   tau(  38) = (  -0.0818693   0.2389890   0.0000000  )
        39           N   tau(  39) = (  -0.1674641   0.3833681   0.0000000  )
        40           N   tau(  40) = (  -0.2540681   0.5273780   0.0000000  )
        41           N   tau(  41) = (  -0.3370738   0.6711773   0.0000000  )
        42           N   tau(  42) = (  -0.4177942   0.8164549   0.0000000  )
        43           N   tau(  43) = (   0.1683939   0.0998188   0.0000000  )
        44           N   tau(  44) = (   0.0848090   0.2417047   0.0000000  )
        45           N   tau(  45) = (  -0.0024195   0.3850972   0.0000000  )
        46           N   tau(  46) = (  -0.0881022   0.5292800   0.0000000  )
        47           N   tau(  47) = (  -0.1705422   0.6735858   0.0000000  )
        48           N   tau(  48) = (  -0.2517232   0.8189395   0.0000000  )
        49           N   tau(  49) = (   0.3341164   0.1005727   0.0000000  )
        50           N   tau(  50) = (   0.2556582   0.2520545   0.0000000  )
        51           N   tau(  51) = (   0.1622940   0.3884976   0.0000000  )
        52           N   tau(  52) = (   0.0763777   0.5309771   0.0000000  )
        53           N   tau(  53) = (  -0.0043449   0.6743854   0.0000000  )
        54           N   tau(  54) = (  -0.0856349   0.8189991   0.0000000  )
        55           N   tau(  55) = (   0.5015301   0.0939880   0.0000000  )
        56           N   tau(  56) = (   0.4255800   0.2411603   0.0000000  )
        57           N   tau(  57) = (   0.2427513   0.5279653   0.0000000  )
        58           N   tau(  58) = (   0.1633523   0.6722148   0.0000000  )
        59           N   tau(  59) = (   0.0823652   0.8160617   0.0000000  )
        60           N   tau(  60) = (   0.6687877   0.0921994   0.0000000  )
        61           N   tau(  61) = (   0.5884632   0.2353338   0.0000000  )
        62           N   tau(  62) = (   0.5019672   0.3735948   0.0000000  )
        63           N   tau(  63) = (   0.4076800   0.5154743   0.0000000  )
        64           N   tau(  64) = (   0.3311229   0.6684693   0.0000000  )
        65           N   tau(  65) = (   0.2502217   0.8141258   0.0000000  )
        66           N   tau(  66) = (   0.8348889   0.0931295   0.0000000  )
        67           N   tau(  67) = (   0.7526495   0.2374649   0.0000000  )
        68           N   tau(  68) = (   0.6673820   0.3813518   0.0000000  )
        69           N   tau(  69) = (   0.5779735   0.5230428   0.0000000  )
        70           N   tau(  70) = (   0.4958535   0.6670602   0.0000000  )
        71           N   tau(  71) = (   0.4163513   0.8142794   0.0000000  )

     number of k points=     1
                       cart. coord. in units 2pi/alat
        k(    1) = (   0.0000000   0.0000000   0.0000000), wk =   1.0000000

     Dense  grid:  1457633 G-vectors     FFT dimensions: ( 135, 135, 180)

     Estimated max dynamical RAM per process >     320.92MB

     Estimated total allocated dynamical RAM >   10269.45MB
     Generating pointlists ...
     new r_m :   0.0388 (alat units)  1.1043 (a.u.) for type    1
     new r_m :   0.0362 (alat units)  1.0282 (a.u.) for type    2

     Initial potential from superposition of free atoms
     Check: negative starting charge=(component1):   -0.003141
     Check: negative starting charge=(component2):   -0.001047

     starting charge  284.99101, renormalised to  285.00000

     negative rho (up, down):  3.141E-03 1.047E-03
     Starting wfc are  284 randomized atomic wfcs

     total cpu time spent up to now is        8.2 secs

     per-process dynamical memory:   237.9 Mb

     Self-consistent Calculation

     iteration #  1     ecut=    55.00 Ry     beta=0.70
     Davidson diagonalization with overlap
     ethr =  1.00E-02,  avg # of iterations =  2.0

     negative rho (up, down):  5.144E-04 1.062E-04

     total cpu time spent up to now is       17.8 secs

     total energy              =    -915.11069092 Ry
     Harris-Foulkes estimate   =    -914.94966923 Ry
     estimated scf accuracy    <      16.84278628 Ry

     total magnetization       =     1.00 Bohr mag/cell
     absolute magnetization    =    10.75 Bohr mag/cell

     iteration #  2     ecut=    55.00 Ry     beta=0.70
     Davidson diagonalization with overlap
     ethr =  5.91E-03,  avg # of iterations =  3.0

     negative rho (up, down):  2.148E-04 2.575E-05

     total cpu time spent up to now is       28.0 secs

     total energy              =    -918.60345613 Ry
     Harris-Foulkes estimate   =    -921.70668768 Ry
     estimated scf accuracy    <       7.24889550 Ry

     total magnetization       =     1.00 Bohr mag/cell
     absolute magnetization    =     4.79 Bohr mag/cell

     iteration #  3     ecut=    55.00 Ry     beta=0.70
     Davidson diagonalization with overlap
     ethr =  2.54E-03,  avg # of iterations =  3.0

     negative rho (up, down):  2.742E-07 0.000E+00

     total cpu time spent up to now is       37.4 secs

     total energy              =    -920.41758381 Ry
     Harris-Foulkes estimate   =    -920.29558482 Ry
     estimated scf accuracy    <       0.40727725 Ry

     total magnetization       =     1.00 Bohr mag/cell
     absolute magnetization    =     4.23 Bohr mag/cell

     iteration #  4     ecut=    55.00 Ry     beta=0.70
     Davidson diagonalization with overlap
     ethr =  1.43E-04,  avg # of iterations = 11.5

     total cpu time spent up to now is       49.8 secs

     total energy              =    -920.50687170 Ry
     Harris-Foulkes estimate   =    -920.65038458 Ry
     estimated scf accuracy    <       0.37272227 Ry

     total magnetization       =     1.00 Bohr mag/cell
     absolute magnetization    =     2.44 Bohr mag/cell

     iteration #  5     ecut=    55.00 Ry     beta=0.70
     Davidson diagonalization with overlap
     ethr =  1.31E-04,  avg # of iterations =  8.5

     total cpu time spent up to now is       59.5 secs

     total energy              =    -920.57091795 Ry
     Harris-Foulkes estimate   =    -920.58821342 Ry
     estimated scf accuracy    <       0.05442081 Ry

     total magnetization       =     1.00 Bohr mag/cell
     absolute magnetization    =     2.12 Bohr mag/cell

     iteration #  6     ecut=    55.00 Ry     beta=0.70
     Davidson diagonalization with overlap
     ethr =  1.91E-05,  avg # of iterations =  9.5

     total cpu time spent up to now is       69.1 secs

     total energy              =    -920.57678296 Ry
     Harris-Foulkes estimate   =    -920.57848388 Ry
     estimated scf accuracy    <       0.00814136 Ry

     total magnetization       =     1.00 Bohr mag/cell
     absolute magnetization    =     1.90 Bohr mag/cell

     iteration #  7     ecut=    55.00 Ry     beta=0.70
     Davidson diagonalization with overlap
     ethr =  2.86E-06,  avg # of iterations =  8.0

     total cpu time spent up to now is       82.4 secs

     total energy              =    -920.58062617 Ry
     Harris-Foulkes estimate   =    -920.58165147 Ry
     estimated scf accuracy    <       0.00419193 Ry

     total magnetization       =     1.00 Bohr mag/cell
     absolute magnetization    =     1.36 Bohr mag/cell

     iteration #  8     ecut=    55.00 Ry     beta=0.70
     Davidson diagonalization with overlap
     ethr =  1.47E-06,  avg # of iterations =  4.0

     total cpu time spent up to now is       91.0 secs

     total energy              =    -920.58078709 Ry
     Harris-Foulkes estimate   =    -920.58120818 Ry
     estimated scf accuracy    <       0.00119483 Ry

     total magnetization       =     1.00 Bohr mag/cell
     absolute magnetization    =     1.27 Bohr mag/cell

     iteration #  9     ecut=    55.00 Ry     beta=0.70
     Davidson diagonalization with overlap
     ethr =  4.19E-07,  avg # of iterations =  5.0

     total cpu time spent up to now is      101.3 secs

     total energy              =    -920.58108413 Ry
     Harris-Foulkes estimate   =    -920.58098129 Ry
     estimated scf accuracy    <       0.00006874 Ry

     total magnetization       =     1.00 Bohr mag/cell
     absolute magnetization    =     1.21 Bohr mag/cell

     iteration # 10     ecut=    55.00 Ry     beta=0.70
     Davidson diagonalization with overlap
     ethr =  2.41E-08,  avg # of iterations =  3.5

     total cpu time spent up to now is      113.5 secs

     total energy              =    -920.58115508 Ry
     Harris-Foulkes estimate   =    -920.58115511 Ry
     estimated scf accuracy    <       0.00003518 Ry

     total magnetization       =     1.00 Bohr mag/cell
     absolute magnetization    =     1.15 Bohr mag/cell

     iteration # 11     ecut=    55.00 Ry     beta=0.70
     Davidson diagonalization with overlap
     ethr =  1.23E-08,  avg # of iterations =  3.0

     total cpu time spent up to now is      124.6 secs

     total energy              =    -920.58116952 Ry
     Harris-Foulkes estimate   =    -920.58117267 Ry
     estimated scf accuracy    <       0.00000519 Ry

     total magnetization       =     1.00 Bohr mag/cell
     absolute magnetization    =     1.14 Bohr mag/cell

     iteration # 12     ecut=    55.00 Ry     beta=0.70
     Davidson diagonalization with overlap
     ethr =  1.82E-09,  avg # of iterations =  3.5

     total cpu time spent up to now is      134.7 secs

     total energy              =    -920.58117172 Ry
     Harris-Foulkes estimate   =    -920.58117155 Ry
     estimated scf accuracy    <       0.00000130 Ry

     total magnetization       =     1.00 Bohr mag/cell
     absolute magnetization    =     1.14 Bohr mag/cell

     iteration # 13     ecut=    55.00 Ry     beta=0.70
     Davidson diagonalization with overlap
     ethr =  4.58E-10,  avg # of iterations =  3.5

     total cpu time spent up to now is      145.1 secs

     total energy              =    -920.58117236 Ry
     Harris-Foulkes estimate   =    -920.58117236 Ry
     estimated scf accuracy    <       0.00000017 Ry

     total magnetization       =     1.00 Bohr mag/cell
     absolute magnetization    =     1.14 Bohr mag/cell

     iteration # 14     ecut=    55.00 Ry     beta=0.70
     Davidson diagonalization with overlap
     ethr =  6.13E-11,  avg # of iterations =  3.0

     total cpu time spent up to now is      156.1 secs

     total energy              =    -920.58117244 Ry
     Harris-Foulkes estimate   =    -920.58117243 Ry
     estimated scf accuracy    <       0.00000002 Ry

     total magnetization       =     1.00 Bohr mag/cell
     absolute magnetization    =     1.14 Bohr mag/cell

     iteration # 15     ecut=    55.00 Ry     beta=0.70
     Davidson diagonalization with overlap
     ethr =  6.98E-12,  avg # of iterations =  3.0
 
     Magnetic moment per site:
     atom:    1    charge:    0.8061    magn:    0.0000    constr:    0.0000
     atom:    2    charge:    0.8194    magn:    0.0000    constr:    0.0000
     atom:    3    charge:    0.8298    magn:    0.0001    constr:    0.0000
     atom:    4    charge:    0.8271    magn:    0.0009    constr:    0.0000
     atom:    5    charge:    0.8229    magn:    0.0001    constr:    0.0000
     atom:    6    charge:    0.8163    magn:    0.0000    constr:    0.0000
     atom:    7    charge:    0.8140    magn:    0.0010    constr:    0.0000
     atom:    8    charge:    0.7856    magn:   -0.0001    constr:    0.0000
     atom:    9    charge:    0.8334    magn:    0.0009    constr:    0.0000
     atom:   10    charge:    0.8346    magn:    0.0005    constr:    0.0000
     atom:   11    charge:    0.8277    magn:    0.0001    constr:    0.0000
     atom:   12    charge:    0.8232    magn:    0.0001    constr:    0.0000
     atom:   13    charge:    0.8207    magn:    0.0031    constr:    0.0000
     atom:   14    charge:    0.8027    magn:    0.0149    constr:    0.0000
     atom:   15    charge:    0.7175    magn:    0.0132    constr:    0.0000
     atom:   16    charge:    0.8570    magn:    0.0032    constr:    0.0000
     atom:   17    charge:    0.8352    magn:    0.0005    constr:    0.0000
     atom:   18    charge:    0.8269    magn:    0.0009    constr:    0.0000
     atom:   19    charge:    0.8328    magn:   -0.0000    constr:    0.0000
     atom:   20    charge:    0.8548    magn:    0.0058    constr:    0.0000
     atom:   21    charge:    2.3325    magn:    0.2198    constr:    0.0000
     atom:   22    charge:    0.7174    magn:    0.0132    constr:    0.0000
     atom:   23    charge:    0.8335    magn:    0.0009    constr:    0.0000
     atom:   24    charge:    0.8307    magn:    0.0001    constr:    0.0000
     atom:   25    charge:    0.8286    magn:    0.0003    constr:    0.0000
     atom:   26    charge:    0.8428    magn:    0.0017    constr:    0.0000
     atom:   27    charge:    0.8543    magn:    0.0058    constr:    0.0000
     atom:   28    charge:    0.8029    magn:    0.0148    constr:    0.0000
     atom:   29    charge:    0.7864    magn:   -0.0001    constr:    0.0000
     atom:   30    charge:    0.8189    magn:    0.0000    constr:    0.0000
     atom:   31    charge:    0.8198    magn:    0.0001    constr:    0.0000
     atom:   32    charge:    0.8285    magn:    0.0003    constr:    0.0000
     atom:   33    charge:    0.8326    magn:   -0.0000    constr:    0.0000
     atom:   34    charge:    0.8198    magn:    0.0031    constr:    0.0000
     atom:   35    charge:    0.8144    magn:    0.0010    constr:    0.0000
     atom:   36    charge:    0.8051    magn:    0.0000    constr:    0.0000
     atom:   37    charge:    2.3984    magn:    0.0001    constr:    0.0000
     atom:   38    charge:    2.3990    magn:   -0.0002    constr:    0.0000
     atom:   39    charge:    2.4051    magn:   -0.0003    constr:    0.0000
     atom:   40    charge:    2.3977    magn:    0.0001    constr:    0.0000
     atom:   41    charge:    2.3912    magn:   -0.0000    constr:    0.0000
     atom:   42    charge:    2.3892    magn:    0.0007    constr:    0.0000
     atom:   43    charge:    2.3832    magn:   -0.0001    constr:    0.0000
     atom:   44    charge:    2.3959    magn:   -0.0003    constr:    0.0000
     atom:   45    charge:    2.4072    magn:   -0.0004    constr:    0.0000
     atom:   46    charge:    2.4067    magn:   -0.0003    constr:    0.0000
     atom:   47    charge:    2.4010    magn:    0.0010    constr:    0.0000
     atom:   48    charge:    2.3917    magn:   -0.0000    constr:    0.0000
     atom:   49    charge:    2.3843    magn:    0.0012    constr:    0.0000
     atom:   50    charge:    2.3457    magn:   -0.0069    constr:    0.0000
     atom:   51    charge:    2.4149    magn:   -0.0004    constr:    0.0000
     atom:   52    charge:    2.4219    magn:   -0.0002    constr:    0.0000
     atom:   53    charge:    2.4088    magn:   -0.0003    constr:    0.0000
     atom:   54    charge:    2.3971    magn:    0.0001    constr:    0.0000
     atom:   55    charge:    2.4099    magn:   -0.0005    constr:    0.0000
     atom:   56    charge:    2.3748    magn:    0.0284    constr:    0.0000
     atom:   57    charge:    2.4160    magn:   -0.0004    constr:    0.0000
     atom:   58    charge:    2.4054    magn:   -0.0004    constr:    0.0000
     atom:   59    charge:    2.4048    magn:   -0.0003    constr:    0.0000
     atom:   60    charge:    2.4074    magn:    0.0015    constr:    0.0000
     atom:   61    charge:    2.4239    magn:    0.0133    constr:    0.0000
     atom:   62    charge:    2.3760    magn:    0.0286    constr:    0.0000
     atom:   63    charge:    2.3448    magn:   -0.0069    constr:    0.0000
     atom:   64    charge:    2.3971    magn:   -0.0003    constr:    0.0000
     atom:   65    charge:    2.4024    magn:   -0.0002    constr:    0.0000
     atom:   66    charge:    2.4031    magn:    0.0009    constr:    0.0000
     atom:   67    charge:    2.4091    magn:    0.0015    constr:    0.0000
     atom:   68    charge:    2.4074    magn:   -0.0005    constr:    0.0000
     atom:   69    charge:    2.3828    magn:    0.0012    constr:    0.0000
     atom:   70    charge:    2.3828    magn:   -0.0001    constr:    0.0000
     atom:   71    charge:    2.3996    magn:    0.0001    constr:    0.0000

     total cpu time spent up to now is      166.4 secs

     End of self-consistent calculation

 ------ SPIN UP ------------


          k = 0.0000 0.0000 0.0000 (182351 PWs)   bands (ev):

   -24.7787 -21.7042 -21.3139 -21.2984 -21.1927 -21.1827 -21.1745 -20.7034
   -20.6175 -20.3037 -20.2476 -20.1522 -20.1364 -20.0450 -19.9711 -19.8678
   -19.7921 -19.7685 -19.5827 -19.2773 -19.0392 -18.8893 -18.8506 -18.8148
   -18.8147 -18.7896 -18.7875 -18.7607 -18.7431 -18.7133 -18.6391 -18.5958
   -18.5733 -18.2162 -18.1072 -15.2320 -13.0892 -13.0487 -12.9013 -12.7972
   -12.5655 -12.2978 -12.2935 -12.2266 -12.2131 -12.2015 -12.1898 -12.0945
   -12.0941 -12.0496 -11.9726 -11.8264 -11.6192 -11.3100 -11.2812 -11.2265
   -11.1409 -10.9903 -10.8775 -10.7712 -10.2957 -10.2773  -9.8715  -9.7838
    -9.7365  -9.6430  -9.6261  -9.6159  -9.5475  -9.5241  -9.5200  -9.5045
    -9.4723  -9.4648  -9.4314  -9.3363  -9.3143  -9.1921  -9.0043  -8.8587
    -8.6806  -8.6767  -8.6752  -8.6100  -8.5465  -8.5294  -8.3052  -8.2690
    -8.1882  -8.1562  -8.0767  -8.0610  -7.9854  -7.9789  -7.9436  -7.8886
    -7.8038  -7.8013  -7.6742  -7.6698  -7.5634  -7.5195  -7.4815  -7.3975
    -7.3576  -7.3477  -7.2906  -7.2780  -7.1917  -7.1439  -6.9072  -6.7755
    -6.7736  -6.7621  -6.7395  -6.6874  -6.6144  -6.6031  -6.3917  -6.3886
    -6.2829  -6.2736  -5.8789  -5.7196  -5.5962  -5.5708  -5.4220  -5.2572
    -5.2386  -5.2200  -5.2175  -5.2039  -5.1995  -5.1597  -5.1474  -5.0934
    -5.0360  -4.9924  -4.9652  -4.3068  -4.1619  -3.6860  -1.8485  -0.6201
     0.5690   0.5738   0.6058   0.7140   0.7149   0.9423   1.1527

 ------ SPIN DOWN ----------


          k = 0.0000 0.0000 0.0000 (182351 PWs)   bands (ev):

   -24.4885 -21.7003 -21.2984 -21.2923 -21.1891 -21.1784 -21.1589 -20.6914
   -20.5656 -20.2968 -20.2447 -20.1510 -20.1312 -20.0346 -19.9680 -19.8601
   -19.7898 -19.7659 -19.5764 -19.2633 -19.0287 -18.8840 -18.8497 -18.8133
   -18.8121 -18.7869 -18.7864 -18.7594 -18.7430 -18.7105 -18.6414 -18.5956
   -18.5742 -18.2138 -18.1070 -14.9967 -13.0693 -13.0275 -12.8902 -12.7532
   -12.5475 -12.2917 -12.2844 -12.2232 -12.2014 -12.1997 -12.1874 -12.0841
   -12.0820 -12.0476 -11.9684 -11.8155 -11.6079 -11.2971 -11.2696 -11.2107
   -11.1332 -10.9840 -10.8654 -10.7584 -10.2790 -10.2562  -9.8565  -9.7232
    -9.6380  -9.6209  -9.6061  -9.5415  -9.5193  -9.5135  -9.5025  -9.4703
    -9.4634  -9.4439  -9.4259  -9.3326  -9.3127  -9.0515  -8.9933  -8.8520
    -8.6688  -8.6633  -8.6616  -8.6024  -8.5042  -8.4887  -8.3015  -8.2575
    -8.1744  -8.1535  -8.0720  -8.0593  -7.9824  -7.9639  -7.9389  -7.8846
    -7.8015  -7.6723  -7.6698  -7.6637  -7.5617  -7.5174  -7.4769  -7.3939
    -7.3266  -7.3180  -7.2742  -7.2685  -7.1824  -7.1175  -6.8718  -6.7687
    -6.7469  -6.7240  -6.7154  -6.6763  -6.6121  -6.5804  -6.3910  -6.3454
    -6.2791  -6.2692  -5.7854  -5.7167  -5.5894  -5.4788  -5.3101  -5.2416
    -5.2227  -5.2144  -5.2079  -5.1964  -5.1906  -5.1573  -5.1433  -5.0865
    -5.0331  -4.9613  -4.9601  -4.2887  -4.1466  -3.4740  -1.1468  -0.1843
     0.6062   0.6126   0.6154   0.7383   0.7492   0.9871   1.2166

     highest occupied, lowest unoccupied level (ev):    -1.8485   -1.1468

!    total energy              =    -920.58117245 Ry
     Harris-Foulkes estimate   =    -920.58117245 Ry
     estimated scf accuracy    <          5.2E-09 Ry

     The total energy is the sum of the following terms:

     one-electron contribution =   -7783.76536952 Ry
     hartree contribution      =    3944.58776008 Ry
     xc contribution           =    -262.31501767 Ry
     ewald contribution        =    3180.91145466 Ry

     total magnetization       =     1.00 Bohr mag/cell
     absolute magnetization    =     1.14 Bohr mag/cell

     convergence has been achieved in  15 iterations

     Writing output data file BN.save
 
     init_run     :      7.95s CPU      8.09s WALL (       1 calls)
     electrons    :    156.71s CPU    158.49s WALL (       1 calls)

     Called by init_run:
     wfcinit      :      4.34s CPU      4.41s WALL (       1 calls)
     potinit      :      1.04s CPU      1.08s WALL (       1 calls)

     Called by electrons:
     c_bands      :    132.67s CPU    133.88s WALL (      15 calls)
     sum_band     :     15.46s CPU     15.64s WALL (      15 calls)
     v_of_rho     :      6.20s CPU      6.44s WALL (      16 calls)
     mix_rho      :      2.02s CPU      2.13s WALL (      15 calls)

     Called by c_bands:
     init_us_2    :      1.34s CPU      1.38s WALL (      31 calls)
     cegterg      :    119.43s CPU    120.57s WALL (      15 calls)

     Called by sum_band:

     Called by *egterg:
     h_psi        :     90.56s CPU     90.64s WALL (      88 calls)
     g_psi        :      0.33s CPU      0.33s WALL (      72 calls)
     cdiaghg      :      4.72s CPU      4.92s WALL (      87 calls)

     Called by h_psi:
     h_psi:pot    :     89.69s CPU     89.76s WALL (      88 calls)
     h_psi:calbec :     12.27s CPU     12.26s WALL (      88 calls)
     vloc_psi     :     64.84s CPU     64.92s WALL (      88 calls)
     add_vuspsi   :     12.58s CPU     12.58s WALL (      88 calls)

     General routines
     calbec       :     12.27s CPU     12.26s WALL (      88 calls)
     fft          :      2.45s CPU      2.79s WALL (     333 calls)
     fftw         :     58.46s CPU     58.52s WALL (   15971 calls)
 
     Parallel routines
     fft_scatter  :     19.58s CPU     19.94s WALL (   16304 calls)
 
     PWSCF        :  2m48.68s CPU     2m51.54s WALL

 
   This run was terminated on:  13:39:32   1Jun2021            

=------------------------------------------------------------------------------=
   JOB DONE.
=------------------------------------------------------------------------------=
