
     Program PWSCF v.6.1 (svn rev. 13369) starts on  1Jun2021 at 13:18:11 

     This program is part of the open-source Quantum ESPRESSO suite
     for quantum simulation of materials; please cite
         "P. Giannozzi et al., J. Phys.:Condens. Matter 21 395502 (2009);
          URL http://www.quantum-espresso.org", 
     in publications or presentations arising from this work. More details at
     http://www.quantum-espresso.org/quote

     Parallel version (MPI), running on    32 processors
     K-points division:     npool     =       2
     R & G space division:  proc/nbgrp/npool/nimage =      16
     Reading input from scf.in
Warning: card &IONS ignored
Warning: card / ignored

     Current dimensions of program PWSCF are:
     Max number of different atomic species (ntypx) = 10
     Max number of k-points (npk) =  40000
     Max angular momentum in pseudopotentials (lmaxx) =  3

     Subspace diagonalization in iterative solution of the eigenvalue problem:
     one sub-group per band group will be used
     scalapack distributed-memory algorithm (size of sub-group:  4*  4 procs)

 
     Parallelization info
     --------------------
     sticks:   dense  smooth     PW     G-vecs:    dense   smooth      PW
     Min         252     252     62                12125    12125    1510
     Max         254     254     63                12129    12129    1515
     Sum        4049    4049   1005               194039   194039   24207
 


     bravais-lattice index     =            1
     lattice parameter (alat)  =      13.4862  a.u.
     unit-cell volume          =    2452.8358 (a.u.)^3
     number of atoms/cell      =           63
     number of atomic types    =            2
     number of electrons       =       254.00 (up: 127.00, down: 127.00)
     number of Kohn-Sham states=          152
     kinetic-energy cutoff     =      70.0000  Ry
     charge density cutoff     =     280.0000  Ry
     convergence threshold     =      1.0E-06
     mixing beta               =       0.5000
     number of iterations used =            8  plain     mixing
     Exchange-correlation      = PBE ( 1  4  3  4 0 0)

     celldm(1)=  13.486197  celldm(2)=   0.000000  celldm(3)=   0.000000
     celldm(4)=   0.000000  celldm(5)=   0.000000  celldm(6)=   0.000000

     crystal axes: (cart. coord. in units of alat)
               a(1) = (   1.000000   0.000000   0.000000 )  
               a(2) = (   0.000000   1.000000   0.000000 )  
               a(3) = (   0.000000   0.000000   1.000000 )  

     reciprocal axes: (cart. coord. in units 2 pi/alat)
               b(1) = (  1.000000  0.000000  0.000000 )  
               b(2) = (  0.000000  1.000000  0.000000 )  
               b(3) = (  0.000000  0.000000  1.000000 )  


     PseudoPot. # 1 for C  read from file:
     /export/data/share/tjsmart/Pseudo/C_ONCV_PBE-1.0.upf
     MD5 check sum: 72b63e32b2fd29504de26a4901699f60
     Pseudo is Norm-conserving, Zval =  4.0
     Generated using ONCVPSP code by D. R. Hamann
     Using radial grid of 1248 points,  4 beta functions with: 
                l(1) =   0
                l(2) =   0
                l(3) =   1
                l(4) =   1

     PseudoPot. # 2 for N  read from file:
     /export/data/share/tjsmart/Pseudo/N_ONCV_PBE-1.0.upf
     MD5 check sum: 09890da6b2972017450f7114a6086fad
     Pseudo is Norm-conserving, Zval =  5.0
     Generated using ONCVPSP code by D. R. Hamann
     Using radial grid of 1058 points,  4 beta functions with: 
                l(1) =   0
                l(2) =   0
                l(3) =   1
                l(4) =   1

     atomic species   valence    mass     pseudopotential
        C              4.00    12.01110     C ( 1.00)
        N              5.00    14.00670     N ( 1.00)

     Starting magnetic structure 
     atomic species   magnetization
        C            0.200
        N            0.200

      6 Sym. Ops. (no inversion) found


                                    s                        frac. trans.

      isym =  1     identity                                     

 cryst.   s( 1) = (     1          0          0      )
                  (     0          1          0      )
                  (     0          0          1      )

 cart.    s( 1) = (  1.0000000  0.0000000  0.0000000 )
                  (  0.0000000  1.0000000  0.0000000 )
                  (  0.0000000  0.0000000  1.0000000 )


      isym =  2     120 deg rotation - cart. axis [-1,-1,-1]     

 cryst.   s( 2) = (     0          0          1      )
                  (     1          0          0      )
                  (     0          1          0      )

 cart.    s( 2) = (  0.0000000  1.0000000  0.0000000 )
                  (  0.0000000  0.0000000  1.0000000 )
                  (  1.0000000  0.0000000  0.0000000 )


      isym =  3     120 deg rotation - cart. axis [1,1,1]        

 cryst.   s( 3) = (     0          1          0      )
                  (     0          0          1      )
                  (     1          0          0      )

 cart.    s( 3) = (  0.0000000  0.0000000  1.0000000 )
                  (  1.0000000  0.0000000  0.0000000 )
                  (  0.0000000  1.0000000  0.0000000 )


      isym =  4     inv. 180 deg rotation - cart. axis [1,-1,0]  

 cryst.   s( 4) = (     0          1          0      )
                  (     1          0          0      )
                  (     0          0          1      )

 cart.    s( 4) = (  0.0000000  1.0000000  0.0000000 )
                  (  1.0000000  0.0000000  0.0000000 )
                  (  0.0000000  0.0000000  1.0000000 )


      isym =  5     inv. 180 deg rotation - cart. axis [-1,0,1]  

 cryst.   s( 5) = (     0          0          1      )
                  (     0          1          0      )
                  (     1          0          0      )

 cart.    s( 5) = (  0.0000000  0.0000000  1.0000000 )
                  (  0.0000000  1.0000000  0.0000000 )
                  (  1.0000000  0.0000000  0.0000000 )


      isym =  6     inv. 180 deg rotation - cart. axis [0,1,-1]  

 cryst.   s( 6) = (     1          0          0      )
                  (     0          0          1      )
                  (     0          1          0      )

 cart.    s( 6) = (  1.0000000  0.0000000  0.0000000 )
                  (  0.0000000  0.0000000  1.0000000 )
                  (  0.0000000  1.0000000  0.0000000 )


     point group C_3v (3m)  
     there are  3 classes
     the character table:

       E     2C3   3s_v 
A_1    1.00  1.00  1.00
A_2    1.00  1.00 -1.00
E      2.00 -1.00  0.00

     the symmetry operations in each class and the name of the first element:

     E        1
          identity                                               
     2C3      2    3
          120 deg rotation - cart. axis [-1,-1,-1]               
     3s_v     4    5    6
          inv. 180 deg rotation - cart. axis [1,-1,0]            

   Cartesian axes

     site n.     atom                  positions (alat units)
         1           C   tau(   1) = (   0.3757250   0.3757250   0.8737212  )
         2           C   tau(   2) = (   0.4999959   0.0001232   0.0001232  )
         3           C   tau(   3) = (   0.5000747   0.0000277   0.5000747  )
         4           C   tau(   4) = (   0.0001232   0.4999959   0.0001232  )
         5           C   tau(   5) = (   0.0000277   0.5000747   0.5000747  )
         6           C   tau(   6) = (  -0.0001087  -0.0001087  -0.0001087  )
         7           C   tau(   7) = (   0.0001232   0.0001232   0.4999959  )
         8           C   tau(   8) = (   0.2501588   0.2501588  -0.0013172  )
         9           C   tau(   9) = (   0.2504233   0.2504233   0.4943339  )
        10           C   tau(  10) = (   0.2504764   0.7489985   0.0010453  )
        11           C   tau(  11) = (   0.2530449   0.7475317   0.5015067  )
        12           C   tau(  12) = (   0.7489985   0.2504764   0.0010453  )
        13           C   tau(  13) = (   0.7475317   0.2530449   0.5015067  )
        14           C   tau(  14) = (   0.7496892   0.7496892  -0.0000346  )
        15           C   tau(  15) = (   0.5000747   0.5000747   0.0000277  )
        16           C   tau(  16) = (   0.7492917   0.7492917   0.4989062  )
        17           C   tau(  17) = (   0.5015067   0.2530449   0.7475317  )
        18           C   tau(  18) = (   0.5015067   0.7475317   0.2530449  )
        19           C   tau(  19) = (   0.4989062   0.7492917   0.7492917  )
        20           C   tau(  20) = (  -0.0013172   0.2501588   0.2501588  )
        21           C   tau(  21) = (   0.0010453   0.2504764   0.7489985  )
        22           C   tau(  22) = (   0.0010453   0.7489985   0.2504764  )
        23           C   tau(  23) = (  -0.0000346   0.7496892   0.7496892  )
        24           C   tau(  24) = (   0.2504233   0.4943339   0.2504233  )
        25           C   tau(  25) = (   0.2530449   0.5015067   0.7475317  )
        26           C   tau(  26) = (   0.2501588  -0.0013172   0.2501588  )
        27           C   tau(  27) = (   0.2504764   0.0010453   0.7489985  )
        28           C   tau(  28) = (   0.7475317   0.5015067   0.2530449  )
        29           C   tau(  29) = (   0.7492917   0.4989062   0.7492917  )
        30           C   tau(  30) = (   0.4943339   0.2504233   0.2504233  )
        31           C   tau(  31) = (   0.7489985   0.0010453   0.2504764  )
        32           C   tau(  32) = (   0.6247962   0.8746575   0.6247962  )
        33           C   tau(  33) = (   0.6342971   0.3687995   0.6342971  )
        34           C   tau(  34) = (   0.3759517   0.8761966   0.8761966  )
        35           C   tau(  35) = (   0.3757250   0.8737212   0.3757250  )
        36           C   tau(  36) = (   0.8761966   0.3759517   0.8761966  )
        37           C   tau(  37) = (   0.8737212   0.3757250   0.3757250  )
        38           C   tau(  38) = (   0.8747714   0.8747714   0.8747714  )
        39           C   tau(  39) = (   0.8761966   0.8761966   0.3759517  )
        40           C   tau(  40) = (   0.1253873   0.1253873   0.8741955  )
        41           C   tau(  41) = (   0.1236532   0.1236532   0.3748641  )
        42           C   tau(  42) = (   0.1245776   0.6246148   0.8757614  )
        43           C   tau(  43) = (   0.1272409   0.6227764   0.3762885  )
        44           C   tau(  44) = (   0.6246148   0.1245776   0.8757614  )
        45           C   tau(  45) = (   0.6227764   0.1272409   0.3762885  )
        46           C   tau(  46) = (   0.6246148   0.8757614   0.1245776  )
        47           C   tau(  47) = (   0.6247962   0.6247962   0.8746575  )
        48           C   tau(  48) = (   0.3748641   0.1236532   0.1236532  )
        49           C   tau(  49) = (   0.3762885   0.1272409   0.6227764  )
        50           C   tau(  50) = (   0.3762885   0.6227764   0.1272409  )
        51           C   tau(  51) = (   0.3687995   0.6342971   0.6342971  )
        52           C   tau(  52) = (   0.8741955   0.1253873   0.1253873  )
        53           C   tau(  53) = (   0.8757614   0.1245776   0.6246148  )
        54           C   tau(  54) = (   0.8757614   0.6246148   0.1245776  )
        55           C   tau(  55) = (   0.8746575   0.6247962   0.6247962  )
        56           C   tau(  56) = (   0.1236532   0.3748641   0.1236532  )
        57           C   tau(  57) = (   0.1272409   0.3762885   0.6227764  )
        58           C   tau(  58) = (   0.1253873   0.8741955   0.1253873  )
        59           C   tau(  59) = (   0.1245776   0.8757614   0.6246148  )
        60           C   tau(  60) = (   0.6227764   0.3762885   0.1272409  )
        61           C   tau(  61) = (   0.6342971   0.6342971   0.3687995  )
        62           C   tau(  62) = (   0.7496892  -0.0000346   0.7496892  )
        63           N   tau(  63) = (   0.3638772   0.3638772   0.3638772  )

   Crystallographic axes

     site n.     atom                  positions (cryst. coord.)
         1           C   tau(   1) = (  0.3757250  0.3757250  0.8737212  )
         2           C   tau(   2) = (  0.4999959  0.0001232  0.0001232  )
         3           C   tau(   3) = (  0.5000747  0.0000277  0.5000747  )
         4           C   tau(   4) = (  0.0001232  0.4999959  0.0001232  )
         5           C   tau(   5) = (  0.0000277  0.5000747  0.5000747  )
         6           C   tau(   6) = ( -0.0001087 -0.0001087 -0.0001087  )
         7           C   tau(   7) = (  0.0001232  0.0001232  0.4999959  )
         8           C   tau(   8) = (  0.2501588  0.2501588 -0.0013172  )
         9           C   tau(   9) = (  0.2504233  0.2504233  0.4943339  )
        10           C   tau(  10) = (  0.2504764  0.7489985  0.0010453  )
        11           C   tau(  11) = (  0.2530449  0.7475317  0.5015067  )
        12           C   tau(  12) = (  0.7489985  0.2504764  0.0010453  )
        13           C   tau(  13) = (  0.7475317  0.2530449  0.5015067  )
        14           C   tau(  14) = (  0.7496892  0.7496892 -0.0000346  )
        15           C   tau(  15) = (  0.5000747  0.5000747  0.0000277  )
        16           C   tau(  16) = (  0.7492917  0.7492917  0.4989062  )
        17           C   tau(  17) = (  0.5015067  0.2530449  0.7475317  )
        18           C   tau(  18) = (  0.5015067  0.7475317  0.2530449  )
        19           C   tau(  19) = (  0.4989062  0.7492917  0.7492917  )
        20           C   tau(  20) = ( -0.0013172  0.2501588  0.2501588  )
        21           C   tau(  21) = (  0.0010453  0.2504764  0.7489985  )
        22           C   tau(  22) = (  0.0010453  0.7489985  0.2504764  )
        23           C   tau(  23) = ( -0.0000346  0.7496892  0.7496892  )
        24           C   tau(  24) = (  0.2504233  0.4943339  0.2504233  )
        25           C   tau(  25) = (  0.2530449  0.5015067  0.7475317  )
        26           C   tau(  26) = (  0.2501588 -0.0013172  0.2501588  )
        27           C   tau(  27) = (  0.2504764  0.0010453  0.7489985  )
        28           C   tau(  28) = (  0.7475317  0.5015067  0.2530449  )
        29           C   tau(  29) = (  0.7492917  0.4989062  0.7492917  )
        30           C   tau(  30) = (  0.4943339  0.2504233  0.2504233  )
        31           C   tau(  31) = (  0.7489985  0.0010453  0.2504764  )
        32           C   tau(  32) = (  0.6247962  0.8746575  0.6247962  )
        33           C   tau(  33) = (  0.6342971  0.3687995  0.6342971  )
        34           C   tau(  34) = (  0.3759517  0.8761966  0.8761966  )
        35           C   tau(  35) = (  0.3757250  0.8737212  0.3757250  )
        36           C   tau(  36) = (  0.8761966  0.3759517  0.8761966  )
        37           C   tau(  37) = (  0.8737212  0.3757250  0.3757250  )
        38           C   tau(  38) = (  0.8747714  0.8747714  0.8747714  )
        39           C   tau(  39) = (  0.8761966  0.8761966  0.3759517  )
        40           C   tau(  40) = (  0.1253873  0.1253873  0.8741955  )
        41           C   tau(  41) = (  0.1236532  0.1236532  0.3748641  )
        42           C   tau(  42) = (  0.1245776  0.6246148  0.8757614  )
        43           C   tau(  43) = (  0.1272409  0.6227764  0.3762885  )
        44           C   tau(  44) = (  0.6246148  0.1245776  0.8757614  )
        45           C   tau(  45) = (  0.6227764  0.1272409  0.3762885  )
        46           C   tau(  46) = (  0.6246148  0.8757614  0.1245776  )
        47           C   tau(  47) = (  0.6247962  0.6247962  0.8746575  )
        48           C   tau(  48) = (  0.3748641  0.1236532  0.1236532  )
        49           C   tau(  49) = (  0.3762885  0.1272409  0.6227764  )
        50           C   tau(  50) = (  0.3762885  0.6227764  0.1272409  )
        51           C   tau(  51) = (  0.3687995  0.6342971  0.6342971  )
        52           C   tau(  52) = (  0.8741955  0.1253873  0.1253873  )
        53           C   tau(  53) = (  0.8757614  0.1245776  0.6246148  )
        54           C   tau(  54) = (  0.8757614  0.6246148  0.1245776  )
        55           C   tau(  55) = (  0.8746575  0.6247962  0.6247962  )
        56           C   tau(  56) = (  0.1236532  0.3748641  0.1236532  )
        57           C   tau(  57) = (  0.1272409  0.3762885  0.6227764  )
        58           C   tau(  58) = (  0.1253873  0.8741955  0.1253873  )
        59           C   tau(  59) = (  0.1245776  0.8757614  0.6246148  )
        60           C   tau(  60) = (  0.6227764  0.3762885  0.1272409  )
        61           C   tau(  61) = (  0.6342971  0.6342971  0.3687995  )
        62           C   tau(  62) = (  0.7496892 -0.0000346  0.7496892  )
        63           N   tau(  63) = (  0.3638772  0.3638772  0.3638772  )

     number of k points=     1  Marzari-Vanderbilt smearing, width (Ry)=  0.0010
                       cart. coord. in units 2pi/alat
        k(    1) = (   0.0000000   0.0000000   0.0000000), wk =   1.0000000

                       cryst. coord.
        k(    1) = (   0.0000000   0.0000000   0.0000000), wk =   1.0000000

     Dense  grid:   194039 G-vectors     FFT dimensions: (  72,  72,  72)

     Estimated max dynamical RAM per process >      42.63MB

     Estimated total allocated dynamical RAM >    1364.05MB
     Generating pointlists ...
     new r_m :   0.0853 (alat units)  1.1504 (a.u.) for type    1
     new r_m :   0.0853 (alat units)  1.1504 (a.u.) for type    2

     Initial potential from superposition of free atoms

     starting charge  252.99722, renormalised to  254.00000
     Starting wfc are  252 randomized atomic wfcs

     total cpu time spent up to now is        3.6 secs

     per-process dynamical memory:    49.0 Mb

     Self-consistent Calculation

     iteration #  1     ecut=    70.00 Ry     beta=0.50
     Davidson diagonalization with overlap
     ethr =  1.00E-02,  avg # of iterations =  3.0

     total cpu time spent up to now is        4.7 secs

     total energy              =    -723.96842083 Ry
     Harris-Foulkes estimate   =    -724.47070221 Ry
     estimated scf accuracy    <       4.37573787 Ry

     total magnetization       =     0.00 Bohr mag/cell
     absolute magnetization    =     0.88 Bohr mag/cell

     iteration #  2     ecut=    70.00 Ry     beta=0.50
     Davidson diagonalization with overlap
     ethr =  1.72E-03,  avg # of iterations =  2.0

     total cpu time spent up to now is        5.4 secs

     total energy              =    -724.27923054 Ry
     Harris-Foulkes estimate   =    -724.21508962 Ry
     estimated scf accuracy    <       0.70690255 Ry

     total magnetization       =    -0.00 Bohr mag/cell
     absolute magnetization    =     0.33 Bohr mag/cell

     iteration #  3     ecut=    70.00 Ry     beta=0.50
     Davidson diagonalization with overlap
     ethr =  2.78E-04,  avg # of iterations =  7.0

     total cpu time spent up to now is        6.6 secs

     total energy              =    -724.34741444 Ry
     Harris-Foulkes estimate   =    -724.40166659 Ry
     estimated scf accuracy    <       0.18725050 Ry

     total magnetization       =     0.00 Bohr mag/cell
     absolute magnetization    =     0.12 Bohr mag/cell

     iteration #  4     ecut=    70.00 Ry     beta=0.50
     Davidson diagonalization with overlap
     ethr =  7.37E-05,  avg # of iterations = 12.5

     total cpu time spent up to now is        8.3 secs

     total energy              =    -724.39235398 Ry
     Harris-Foulkes estimate   =    -724.38907458 Ry
     estimated scf accuracy    <       0.01179865 Ry

     total magnetization       =     0.00 Bohr mag/cell
     absolute magnetization    =     0.07 Bohr mag/cell

     iteration #  5     ecut=    70.00 Ry     beta=0.50
     Davidson diagonalization with overlap
     c_bands:  1 eigenvalues not converged
     ethr =  4.65E-06,  avg # of iterations = 20.0

     total cpu time spent up to now is       10.8 secs

     total energy              =    -724.39537315 Ry
     Harris-Foulkes estimate   =    -724.39524083 Ry
     estimated scf accuracy    <       0.00146947 Ry

     total magnetization       =     0.00 Bohr mag/cell
     absolute magnetization    =     0.03 Bohr mag/cell

     iteration #  6     ecut=    70.00 Ry     beta=0.50
     Davidson diagonalization with overlap
     ethr =  5.79E-07,  avg # of iterations = 11.0

     total cpu time spent up to now is       12.4 secs

     total energy              =    -724.39564891 Ry
     Harris-Foulkes estimate   =    -724.39566466 Ry
     estimated scf accuracy    <       0.00018147 Ry

     total magnetization       =     0.00 Bohr mag/cell
     absolute magnetization    =     0.02 Bohr mag/cell

     iteration #  7     ecut=    70.00 Ry     beta=0.50
     Davidson diagonalization with overlap
     ethr =  7.14E-08,  avg # of iterations =  3.0

     total cpu time spent up to now is       13.3 secs

     total energy              =    -724.39570071 Ry
     Harris-Foulkes estimate   =    -724.39570766 Ry
     estimated scf accuracy    <       0.00003091 Ry

     total magnetization       =     0.00 Bohr mag/cell
     absolute magnetization    =     0.01 Bohr mag/cell

     iteration #  8     ecut=    70.00 Ry     beta=0.50
     Davidson diagonalization with overlap
     ethr =  1.22E-08,  avg # of iterations =  3.0

     total cpu time spent up to now is       14.2 secs

     total energy              =    -724.39570811 Ry
     Harris-Foulkes estimate   =    -724.39570764 Ry
     estimated scf accuracy    <       0.00000222 Ry

     total magnetization       =     0.00 Bohr mag/cell
     absolute magnetization    =     0.01 Bohr mag/cell

     iteration #  9     ecut=    70.00 Ry     beta=0.50
     Davidson diagonalization with overlap
     ethr =  8.76E-10,  avg # of iterations =  3.0
 
     Magnetic moment per site:
     atom:    1    charge:    1.8222    magn:   -0.0000    constr:    0.0000
     atom:    2    charge:    1.8366    magn:   -0.0000    constr:    0.0000
     atom:    3    charge:    1.8266    magn:    0.0000    constr:    0.0000
     atom:    4    charge:    1.8366    magn:   -0.0000    constr:    0.0000
     atom:    5    charge:    1.8266    magn:    0.0000    constr:    0.0000
     atom:    6    charge:    1.8166    magn:    0.0000    constr:    0.0000
     atom:    7    charge:    1.8366    magn:   -0.0000    constr:    0.0000
     atom:    8    charge:    1.8207    magn:    0.0000    constr:    0.0000
     atom:    9    charge:    1.8005    magn:   -0.0002    constr:    0.0000
     atom:   10    charge:    1.8146    magn:    0.0000    constr:    0.0000
     atom:   11    charge:    1.8232    magn:    0.0000    constr:    0.0000
     atom:   12    charge:    1.8146    magn:    0.0000    constr:    0.0000
     atom:   13    charge:    1.8232    magn:    0.0000    constr:    0.0000
     atom:   14    charge:    1.8206    magn:    0.0000    constr:    0.0000
     atom:   15    charge:    1.8266    magn:    0.0000    constr:    0.0000
     atom:   16    charge:    1.8292    magn:    0.0000    constr:    0.0000
     atom:   17    charge:    1.8232    magn:    0.0000    constr:    0.0000
     atom:   18    charge:    1.8232    magn:    0.0000    constr:    0.0000
     atom:   19    charge:    1.8292    magn:    0.0000    constr:    0.0000
     atom:   20    charge:    1.8207    magn:    0.0000    constr:    0.0000
     atom:   21    charge:    1.8146    magn:    0.0000    constr:    0.0000
     atom:   22    charge:    1.8146    magn:    0.0000    constr:    0.0000
     atom:   23    charge:    1.8206    magn:    0.0000    constr:    0.0000
     atom:   24    charge:    1.8005    magn:   -0.0002    constr:    0.0000
     atom:   25    charge:    1.8232    magn:    0.0000    constr:    0.0000
     atom:   26    charge:    1.8207    magn:    0.0000    constr:    0.0000
     atom:   27    charge:    1.8146    magn:    0.0000    constr:    0.0000
     atom:   28    charge:    1.8232    magn:    0.0000    constr:    0.0000
     atom:   29    charge:    1.8292    magn:    0.0000    constr:    0.0000
     atom:   30    charge:    1.8005    magn:   -0.0002    constr:    0.0000
     atom:   31    charge:    1.8146    magn:    0.0000    constr:    0.0000
     atom:   32    charge:    1.8205    magn:    0.0000    constr:    0.0000
     atom:   33    charge:    1.8293    magn:    0.0000    constr:    0.0000
     atom:   34    charge:    1.8192    magn:    0.0000    constr:    0.0000
     atom:   35    charge:    1.8222    magn:   -0.0000    constr:    0.0000
     atom:   36    charge:    1.8192    magn:    0.0000    constr:    0.0000
     atom:   37    charge:    1.8222    magn:   -0.0000    constr:    0.0000
     atom:   38    charge:    1.8220    magn:    0.0000    constr:    0.0000
     atom:   39    charge:    1.8192    magn:    0.0000    constr:    0.0000
     atom:   40    charge:    1.8238    magn:   -0.0000    constr:    0.0000
     atom:   41    charge:    1.8316    magn:    0.0000    constr:    0.0000
     atom:   42    charge:    1.8181    magn:    0.0000    constr:    0.0000
     atom:   43    charge:    1.8171    magn:    0.0000    constr:    0.0000
     atom:   44    charge:    1.8181    magn:    0.0000    constr:    0.0000
     atom:   45    charge:    1.8171    magn:    0.0000    constr:    0.0000
     atom:   46    charge:    1.8181    magn:    0.0000    constr:    0.0000
     atom:   47    charge:    1.8205    magn:    0.0000    constr:    0.0000
     atom:   48    charge:    1.8316    magn:    0.0000    constr:    0.0000
     atom:   49    charge:    1.8171    magn:    0.0000    constr:    0.0000
     atom:   50    charge:    1.8171    magn:    0.0000    constr:    0.0000
     atom:   51    charge:    1.8293    magn:    0.0000    constr:    0.0000
     atom:   52    charge:    1.8238    magn:   -0.0000    constr:    0.0000
     atom:   53    charge:    1.8181    magn:    0.0000    constr:    0.0000
     atom:   54    charge:    1.8181    magn:    0.0000    constr:    0.0000
     atom:   55    charge:    1.8205    magn:    0.0000    constr:    0.0000
     atom:   56    charge:    1.8316    magn:    0.0000    constr:    0.0000
     atom:   57    charge:    1.8171    magn:    0.0000    constr:    0.0000
     atom:   58    charge:    1.8238    magn:   -0.0000    constr:    0.0000
     atom:   59    charge:    1.8181    magn:    0.0000    constr:    0.0000
     atom:   60    charge:    1.8171    magn:    0.0000    constr:    0.0000
     atom:   61    charge:    1.8293    magn:    0.0000    constr:    0.0000
     atom:   62    charge:    1.8206    magn:    0.0000    constr:    0.0000
     atom:   63    charge:    2.9175    magn:    0.0007    constr:    0.0000

     total cpu time spent up to now is       15.2 secs

     End of self-consistent calculation

 ------ SPIN UP ------------


          k = 0.0000 0.0000 0.0000 ( 24207 PWs)   bands (ev):

    -8.5420  -6.9631  -6.2488  -6.2488  -6.1327  -6.1327  -5.8610  -4.9157
    -4.1067  -4.1067  -4.0831  -4.0831  -3.9932  -3.9932  -3.9616  -3.9142
    -3.8441  -3.8441  -3.3424  -2.9398  -2.6417  -2.6417  -2.0372  -0.3561
    -0.3561  -0.3248  -0.2936  -0.0664   0.1929   0.1929   0.3020   0.3020
     0.3695   0.6193   0.8318   0.8318   1.0013   1.0013   1.0323   1.0413
     1.0413   1.0797   1.3724   1.3724   3.0766   3.9127   3.9127   4.0465
     4.2414   4.2460   4.2467   4.2467   4.2843   4.2843   4.4424   4.4424
     4.4898   4.4898   4.6066   4.6613   4.6613   4.6641   4.6746   4.7618
     4.7618   4.8895   4.9514   4.9514   5.0741   5.2330   5.2330   5.2879
     5.3483   5.3483   5.3895   5.4286   5.4286   6.0302   6.0302   6.0557
     6.6207   6.6207   6.7404   7.0018   7.0488   7.0488   7.5397   8.3257
     8.3257   8.3976   8.4737   8.4737   8.6507   8.6507   8.8086   8.8186
     8.8186   8.8228   8.8785   8.8785   8.9095   9.2690   9.2727   9.2727
     9.6963   9.6963   9.8965   9.9040   9.9040   9.9226   9.9544   9.9699
     9.9699   9.9713  10.0039  10.0039  10.1156  10.1156  10.2612  10.2612
    10.3350  11.0839  12.2855  12.4828  12.4828  13.9245  15.3591  15.3591
    17.3339  17.3586  17.3586  17.5191  17.5331  17.5331  17.8454  17.8958
    17.8958  17.9853  17.9853  18.3695  18.9270  18.9270  18.9570  20.6617
    20.7858  20.7858  20.8287  20.9070  20.9070  20.9850  20.9851  21.0226

     occupation numbers 
     1.0000   1.0000   1.0000   1.0000   1.0000   1.0000   1.0000   1.0000
     1.0000   1.0000   1.0000   1.0000   1.0000   1.0000   1.0000   1.0000
     1.0000   1.0000   1.0000   1.0000   1.0000   1.0000   1.0000   1.0000
     1.0000   1.0000   1.0000   1.0000   1.0000   1.0000   1.0000   1.0000
     1.0000   1.0000   1.0000   1.0000   1.0000   1.0000   1.0000   1.0000
     1.0000   1.0000   1.0000   1.0000   1.0000   1.0000   1.0000   1.0000
     1.0000   1.0000   1.0000   1.0000   1.0000   1.0000   1.0000   1.0000
     1.0000   1.0000   1.0000   1.0000   1.0000   1.0000   1.0000   1.0000
     1.0000   1.0000   1.0000   1.0000   1.0000   1.0000   1.0000   1.0000
     1.0000   1.0000   1.0000   1.0000   1.0000   1.0000   1.0000   1.0000
     1.0000   1.0000   1.0000   1.0000   1.0000   1.0000   1.0000   1.0000
     1.0000   1.0000   1.0000   1.0000   1.0000   1.0000   1.0000   1.0000
     1.0000   1.0000   1.0000   1.0000   1.0000   1.0000   1.0000   1.0000
     1.0000   1.0000   1.0000   1.0000   1.0000   1.0000   1.0000   1.0000
     1.0000   1.0000   1.0000   1.0000   1.0000   1.0000   1.0000   1.0000
     1.0000   1.0000   1.0000   1.0000   1.0000   1.0000   0.5000   0.5000
     0.0000   0.0000   0.0000   0.0000   0.0000   0.0000   0.0000   0.0000
     0.0000   0.0000   0.0000   0.0000   0.0000   0.0000   0.0000   0.0000
     0.0000   0.0000   0.0000   0.0000   0.0000   0.0000   0.0000   0.0000

 ------ SPIN DOWN ----------


          k = 0.0000 0.0000 0.0000 ( 24207 PWs)   bands (ev):

    -8.5420  -6.9625  -6.2490  -6.2490  -6.1328  -6.1328  -5.8611  -4.9153
    -4.1068  -4.1068  -4.0833  -4.0833  -3.9933  -3.9933  -3.9617  -3.9143
    -3.8442  -3.8442  -3.3425  -2.9398  -2.6418  -2.6418  -2.0371  -0.3563
    -0.3563  -0.3250  -0.2937  -0.0662   0.1928   0.1928   0.3019   0.3019
     0.3694   0.6194   0.8317   0.8317   1.0012   1.0012   1.0322   1.0412
     1.0412   1.0796   1.3723   1.3723   3.0765   3.9128   3.9128   4.0465
     4.2414   4.2459   4.2467   4.2467   4.2842   4.2842   4.4424   4.4424
     4.4897   4.4897   4.6066   4.6612   4.6612   4.6640   4.6745   4.7618
     4.7618   4.8894   4.9513   4.9513   5.0740   5.2330   5.2330   5.2878
     5.3482   5.3482   5.3895   5.4285   5.4285   6.0302   6.0302   6.0556
     6.6207   6.6207   6.7403   7.0018   7.0488   7.0488   7.5396   8.3259
     8.3259   8.3976   8.4736   8.4736   8.6507   8.6507   8.8086   8.8186
     8.8186   8.8228   8.8785   8.8785   8.9095   9.2690   9.2727   9.2727
     9.6963   9.6963   9.8965   9.9039   9.9039   9.9227   9.9544   9.9699
     9.9699   9.9713  10.0038  10.0038  10.1156  10.1156  10.2613  10.2613
    10.3351  11.0843  12.2855  12.4828  12.4828  13.9253  15.3588  15.3588
    17.3340  17.3586  17.3586  17.5191  17.5330  17.5330  17.8455  17.8957
    17.8957  17.9853  17.9853  18.3694  18.9271  18.9271  18.9571  20.6620
    20.7857  20.7857  20.8288  20.9070  20.9071  20.9852  20.9852  21.0222

     occupation numbers 
     1.0000   1.0000   1.0000   1.0000   1.0000   1.0000   1.0000   1.0000
     1.0000   1.0000   1.0000   1.0000   1.0000   1.0000   1.0000   1.0000
     1.0000   1.0000   1.0000   1.0000   1.0000   1.0000   1.0000   1.0000
     1.0000   1.0000   1.0000   1.0000   1.0000   1.0000   1.0000   1.0000
     1.0000   1.0000   1.0000   1.0000   1.0000   1.0000   1.0000   1.0000
     1.0000   1.0000   1.0000   1.0000   1.0000   1.0000   1.0000   1.0000
     1.0000   1.0000   1.0000   1.0000   1.0000   1.0000   1.0000   1.0000
     1.0000   1.0000   1.0000   1.0000   1.0000   1.0000   1.0000   1.0000
     1.0000   1.0000   1.0000   1.0000   1.0000   1.0000   1.0000   1.0000
     1.0000   1.0000   1.0000   1.0000   1.0000   1.0000   1.0000   1.0000
     1.0000   1.0000   1.0000   1.0000   1.0000   1.0000   1.0000   1.0000
     1.0000   1.0000   1.0000   1.0000   1.0000   1.0000   1.0000   1.0000
     1.0000   1.0000   1.0000   1.0000   1.0000   1.0000   1.0000   1.0000
     1.0000   1.0000   1.0000   1.0000   1.0000   1.0000   1.0000   1.0000
     1.0000   1.0000   1.0000   1.0000   1.0000   1.0000   1.0000   1.0000
     1.0000   1.0000   1.0000   1.0000   1.0000   1.0000   0.5000   0.5000
     0.0000   0.0000   0.0000   0.0000   0.0000   0.0000   0.0000   0.0000
     0.0000   0.0000   0.0000   0.0000   0.0000   0.0000   0.0000   0.0000
     0.0000   0.0000   0.0000   0.0000   0.0000   0.0000   0.0000   0.0000

     the spin up/dw Fermi energies are    15.3610   15.3607 ev

!    total energy              =    -724.39570930 Ry
     Harris-Foulkes estimate   =    -724.39570878 Ry
     estimated scf accuracy    <       0.00000042 Ry

     The total energy is the sum of the following terms:

     one-electron contribution =     233.02938145 Ry
     hartree contribution      =      69.69241013 Ry
     xc contribution           =    -226.57094727 Ry
     ewald contribution        =    -800.54589724 Ry
     smearing contrib. (-TS)   =      -0.00065637 Ry

     total magnetization       =    -0.00 Bohr mag/cell
     absolute magnetization    =     0.00 Bohr mag/cell

     convergence has been achieved in   9 iterations

     Writing output data file di.save
 
     init_run     :      0.87s CPU      1.43s WALL (       1 calls)
     electrons    :     11.32s CPU     11.72s WALL (       1 calls)

     Called by init_run:
     wfcinit      :      0.37s CPU      0.41s WALL (       1 calls)
     wfcinit:atom :      0.00s CPU      0.00s WALL (       1 calls)
     wfcinit:wfcr :      0.35s CPU      0.39s WALL (       1 calls)
     potinit      :      0.07s CPU      0.08s WALL (       1 calls)

     Called by electrons:
     c_bands      :     10.33s CPU     10.70s WALL (       9 calls)
     sum_band     :      0.54s CPU      0.54s WALL (       9 calls)
     v_of_rho     :      0.36s CPU      0.38s WALL (      10 calls)
     v_h          :      0.01s CPU      0.01s WALL (      10 calls)
     v_xc         :      0.35s CPU      0.37s WALL (      10 calls)
     mix_rho      :      0.06s CPU      0.07s WALL (       9 calls)

     Called by c_bands:
     init_us_2    :      0.08s CPU      0.09s WALL (      19 calls)
     cegterg      :      9.92s CPU     10.28s WALL (       9 calls)

     Called by sum_band:

     Called by *egterg:
     h_psi        :      4.15s CPU      4.25s WALL (      75 calls)
     g_psi        :      0.02s CPU      0.02s WALL (      65 calls)
     cdiaghg      :      3.87s CPU      4.05s WALL (      74 calls)
     cegterg:over :      0.83s CPU      0.84s WALL (      65 calls)
     cegterg:upda :      0.82s CPU      0.83s WALL (      65 calls)
     cegterg:last :      0.26s CPU      0.26s WALL (       9 calls)
     cdiaghg:chol :      0.31s CPU      0.36s WALL (      74 calls)
     cdiaghg:inve :      0.21s CPU      0.22s WALL (      74 calls)
     cdiaghg:para :      0.31s CPU      0.36s WALL (     148 calls)

     Called by h_psi:
     h_psi:pot    :      4.10s CPU      4.19s WALL (      75 calls)
     h_psi:calbec :      0.91s CPU      0.94s WALL (      75 calls)
     vloc_psi     :      2.26s CPU      2.31s WALL (      75 calls)
     add_vuspsi   :      0.92s CPU      0.94s WALL (      75 calls)

     General routines
     calbec       :      0.91s CPU      0.93s WALL (      75 calls)
     fft          :      0.11s CPU      0.54s WALL (     207 calls)
     fftw         :      2.44s CPU      2.42s WALL (    9190 calls)
 
     Parallel routines
     fft_scatter  :      0.72s CPU      0.74s WALL (    9397 calls)
 
     PWSCF        :    12.83s CPU        15.99s WALL

 
   This run was terminated on:  13:18:27   1Jun2021            

=------------------------------------------------------------------------------=
   JOB DONE.
=------------------------------------------------------------------------------=
