
     Program PWSCF v.6.1 (svn rev. 13369) starts on 12May2020 at 10:26:44 

     This program is part of the open-source Quantum ESPRESSO suite
     for quantum simulation of materials; please cite
         "P. Giannozzi et al., J. Phys.:Condens. Matter 21 395502 (2009);
          URL http://www.quantum-espresso.org", 
     in publications or presentations arising from this work. More details at
     http://www.quantum-espresso.org/quote

     Parallel version (MPI), running on    96 processors
     K-points division:     npool     =       6
     R & G space division:  proc/nbgrp/npool/nimage =      16
     Reading input from scf.in
Warning: card &IONS ignored
Warning: card / ignored

     Current dimensions of program PWSCF are:
     Max number of different atomic species (ntypx) = 10
     Max number of k-points (npk) =  40000
     Max angular momentum in pseudopotentials (lmaxx) =  3

     Subspace diagonalization in iterative solution of the eigenvalue problem:
     a serial algorithm will be used

 
     Parallelization info
     --------------------
     sticks:   dense  smooth     PW     G-vecs:    dense   smooth      PW
     Min         252     252     67                12125    12125    1669
     Max         254     254     68                12129    12129    1672
     Sum        4049    4049   1085               194039   194039   26745
 


     bravais-lattice index     =            1
     lattice parameter (alat)  =      13.4862  a.u.
     unit-cell volume          =    2452.8358 (a.u.)^3
     number of atoms/cell      =           63
     number of atomic types    =            2
     number of electrons       =       254.00 (up: 127.00, down: 127.00)
     number of Kohn-Sham states=          152
     kinetic-energy cutoff     =      70.0000  Ry
     charge density cutoff     =     280.0000  Ry
     convergence threshold     =      1.0E-06
     mixing beta               =       0.5000
     number of iterations used =            8  plain     mixing
     Exchange-correlation      = PBE ( 1  4  3  4 0 0)

     celldm(1)=  13.486197  celldm(2)=   0.000000  celldm(3)=   0.000000
     celldm(4)=   0.000000  celldm(5)=   0.000000  celldm(6)=   0.000000

     crystal axes: (cart. coord. in units of alat)
               a(1) = (   1.000000   0.000000   0.000000 )  
               a(2) = (   0.000000   1.000000   0.000000 )  
               a(3) = (   0.000000   0.000000   1.000000 )  

     reciprocal axes: (cart. coord. in units 2 pi/alat)
               b(1) = (  1.000000  0.000000  0.000000 )  
               b(2) = (  0.000000  1.000000  0.000000 )  
               b(3) = (  0.000000  0.000000  1.000000 )  


     PseudoPot. # 1 for C  read from file:
     /home/tjsmart/Pseudo/C_ONCV_PBE-1.0.upf
     MD5 check sum: 72b63e32b2fd29504de26a4901699f60
     Pseudo is Norm-conserving, Zval =  4.0
     Generated using ONCVPSP code by D. R. Hamann
     Using radial grid of 1248 points,  4 beta functions with: 
                l(1) =   0
                l(2) =   0
                l(3) =   1
                l(4) =   1

     PseudoPot. # 2 for N  read from file:
     /home/tjsmart/Pseudo/N_ONCV_PBE-1.0.upf
     MD5 check sum: 09890da6b2972017450f7114a6086fad
     Pseudo is Norm-conserving, Zval =  5.0
     Generated using ONCVPSP code by D. R. Hamann
     Using radial grid of 1058 points,  4 beta functions with: 
                l(1) =   0
                l(2) =   0
                l(3) =   1
                l(4) =   1

     atomic species   valence    mass     pseudopotential
        C              4.00    12.01110     C ( 1.00)
        N              5.00    14.00670     N ( 1.00)

     Starting magnetic structure 
     atomic species   magnetization
        C            0.200
        N            0.200

      6 Sym. Ops. (no inversion) found


                                    s                        frac. trans.

      isym =  1     identity                                     

 cryst.   s( 1) = (     1          0          0      )
                  (     0          1          0      )
                  (     0          0          1      )

 cart.    s( 1) = (  1.0000000  0.0000000  0.0000000 )
                  (  0.0000000  1.0000000  0.0000000 )
                  (  0.0000000  0.0000000  1.0000000 )


      isym =  2     120 deg rotation - cart. axis [-1,-1,-1]     

 cryst.   s( 2) = (     0          0          1      )
                  (     1          0          0      )
                  (     0          1          0      )

 cart.    s( 2) = (  0.0000000  1.0000000  0.0000000 )
                  (  0.0000000  0.0000000  1.0000000 )
                  (  1.0000000  0.0000000  0.0000000 )


      isym =  3     120 deg rotation - cart. axis [1,1,1]        

 cryst.   s( 3) = (     0          1          0      )
                  (     0          0          1      )
                  (     1          0          0      )

 cart.    s( 3) = (  0.0000000  0.0000000  1.0000000 )
                  (  1.0000000  0.0000000  0.0000000 )
                  (  0.0000000  1.0000000  0.0000000 )


      isym =  4     inv. 180 deg rotation - cart. axis [1,-1,0]  

 cryst.   s( 4) = (     0          1          0      )
                  (     1          0          0      )
                  (     0          0          1      )

 cart.    s( 4) = (  0.0000000  1.0000000  0.0000000 )
                  (  1.0000000  0.0000000  0.0000000 )
                  (  0.0000000  0.0000000  1.0000000 )


      isym =  5     inv. 180 deg rotation - cart. axis [-1,0,1]  

 cryst.   s( 5) = (     0          0          1      )
                  (     0          1          0      )
                  (     1          0          0      )

 cart.    s( 5) = (  0.0000000  0.0000000  1.0000000 )
                  (  0.0000000  1.0000000  0.0000000 )
                  (  1.0000000  0.0000000  0.0000000 )


      isym =  6     inv. 180 deg rotation - cart. axis [0,1,-1]  

 cryst.   s( 6) = (     1          0          0      )
                  (     0          0          1      )
                  (     0          1          0      )

 cart.    s( 6) = (  1.0000000  0.0000000  0.0000000 )
                  (  0.0000000  0.0000000  1.0000000 )
                  (  0.0000000  1.0000000  0.0000000 )


     point group C_3v (3m)  
     there are  3 classes
     the character table:

       E     2C3   3s_v 
A_1    1.00  1.00  1.00
A_2    1.00  1.00 -1.00
E      2.00 -1.00  0.00

     the symmetry operations in each class and the name of the first element:

     E        1
          identity                                               
     2C3      2    3
          120 deg rotation - cart. axis [-1,-1,-1]               
     3s_v     4    5    6
          inv. 180 deg rotation - cart. axis [1,-1,0]            

   Cartesian axes

     site n.     atom                  positions (alat units)
         1           C   tau(   1) = (   0.3757766   0.3757766   0.8735823  )
         2           C   tau(   2) = (   0.5002498   0.0004187   0.0004187  )
         3           C   tau(   3) = (   0.4999857  -0.0004113   0.4999857  )
         4           C   tau(   4) = (   0.0004187   0.5002498   0.0004187  )
         5           C   tau(   5) = (  -0.0004113   0.4999857   0.4999857  )
         6           C   tau(   6) = (  -0.0001215  -0.0001215  -0.0001215  )
         7           C   tau(   7) = (   0.0004187   0.0004187   0.5002498  )
         8           C   tau(   8) = (   0.2504403   0.2504403  -0.0009221  )
         9           C   tau(   9) = (   0.2513474   0.2513474   0.4962569  )
        10           C   tau(  10) = (   0.2501677   0.7491279   0.0008553  )
        11           C   tau(  11) = (   0.2512089   0.7485652   0.5020796  )
        12           C   tau(  12) = (   0.7491279   0.2501677   0.0008553  )
        13           C   tau(  13) = (   0.7485652   0.2512089   0.5020796  )
        14           C   tau(  14) = (   0.7495183   0.7495183  -0.0008064  )
        15           C   tau(  15) = (   0.4999857   0.4999857  -0.0004113  )
        16           C   tau(  16) = (   0.7485950   0.7485950   0.4983467  )
        17           C   tau(  17) = (   0.5020796   0.2512089   0.7485652  )
        18           C   tau(  18) = (   0.5020796   0.7485652   0.2512089  )
        19           C   tau(  19) = (   0.4983467   0.7485950   0.7485950  )
        20           C   tau(  20) = (  -0.0009221   0.2504403   0.2504403  )
        21           C   tau(  21) = (   0.0008553   0.2501677   0.7491279  )
        22           C   tau(  22) = (   0.0008553   0.7491279   0.2501677  )
        23           C   tau(  23) = (  -0.0008064   0.7495183   0.7495183  )
        24           C   tau(  24) = (   0.2513474   0.4962569   0.2513474  )
        25           C   tau(  25) = (   0.2512089   0.5020796   0.7485652  )
        26           C   tau(  26) = (   0.2504403  -0.0009221   0.2504403  )
        27           C   tau(  27) = (   0.2501677   0.0008553   0.7491279  )
        28           C   tau(  28) = (   0.7485652   0.5020796   0.2512089  )
        29           C   tau(  29) = (   0.7485950   0.4983467   0.7485950  )
        30           C   tau(  30) = (   0.4962569   0.2513474   0.2513474  )
        31           C   tau(  31) = (   0.7491279   0.0008553   0.2501677  )
        32           C   tau(  32) = (   0.6242646   0.8737038   0.6242646  )
        33           C   tau(  33) = (   0.6361377   0.3627458   0.6361377  )
        34           C   tau(  34) = (   0.3756999   0.8762203   0.8762203  )
        35           C   tau(  35) = (   0.3757766   0.8735823   0.3757766  )
        36           C   tau(  36) = (   0.8762203   0.3756999   0.8762203  )
        37           C   tau(  37) = (   0.8735823   0.3757766   0.3757766  )
        38           C   tau(  38) = (   0.8745012   0.8745012   0.8745012  )
        39           C   tau(  39) = (   0.8762203   0.8762203   0.3756999  )
        40           C   tau(  40) = (   0.1253710   0.1253710   0.8744146  )
        41           C   tau(  41) = (   0.1245202   0.1245202   0.3748727  )
        42           C   tau(  42) = (   0.1236457   0.6243394   0.8761297  )
        43           C   tau(  43) = (   0.1266123   0.6234354   0.3763806  )
        44           C   tau(  44) = (   0.6243394   0.1236457   0.8761297  )
        45           C   tau(  45) = (   0.6234354   0.1266123   0.3763806  )
        46           C   tau(  46) = (   0.6243394   0.8761297   0.1236457  )
        47           C   tau(  47) = (   0.6242646   0.6242646   0.8737038  )
        48           C   tau(  48) = (   0.3748727   0.1245202   0.1245202  )
        49           C   tau(  49) = (   0.3763806   0.1266123   0.6234354  )
        50           C   tau(  50) = (   0.3763806   0.6234354   0.1266123  )
        51           C   tau(  51) = (   0.3627458   0.6361377   0.6361377  )
        52           C   tau(  52) = (   0.8744146   0.1253710   0.1253710  )
        53           C   tau(  53) = (   0.8761297   0.1236457   0.6243394  )
        54           C   tau(  54) = (   0.8761297   0.6243394   0.1236457  )
        55           C   tau(  55) = (   0.8737038   0.6242646   0.6242646  )
        56           C   tau(  56) = (   0.1245202   0.3748727   0.1245202  )
        57           C   tau(  57) = (   0.1266123   0.3763806   0.6234354  )
        58           C   tau(  58) = (   0.1253710   0.8744146   0.1253710  )
        59           C   tau(  59) = (   0.1236457   0.8761297   0.6243394  )
        60           C   tau(  60) = (   0.6234354   0.3763806   0.1266123  )
        61           C   tau(  61) = (   0.6361377   0.6361377   0.3627458  )
        62           C   tau(  62) = (   0.7495183  -0.0008064   0.7495183  )
        63           N   tau(  63) = (   0.3676010   0.3676010   0.3676010  )

   Crystallographic axes

     site n.     atom                  positions (cryst. coord.)
         1           C   tau(   1) = (  0.3757766  0.3757766  0.8735823  )
         2           C   tau(   2) = (  0.5002498  0.0004187  0.0004187  )
         3           C   tau(   3) = (  0.4999857 -0.0004113  0.4999857  )
         4           C   tau(   4) = (  0.0004187  0.5002498  0.0004187  )
         5           C   tau(   5) = ( -0.0004113  0.4999857  0.4999857  )
         6           C   tau(   6) = ( -0.0001215 -0.0001215 -0.0001215  )
         7           C   tau(   7) = (  0.0004187  0.0004187  0.5002498  )
         8           C   tau(   8) = (  0.2504403  0.2504403 -0.0009221  )
         9           C   tau(   9) = (  0.2513474  0.2513474  0.4962569  )
        10           C   tau(  10) = (  0.2501677  0.7491279  0.0008553  )
        11           C   tau(  11) = (  0.2512089  0.7485652  0.5020796  )
        12           C   tau(  12) = (  0.7491279  0.2501677  0.0008553  )
        13           C   tau(  13) = (  0.7485652  0.2512089  0.5020796  )
        14           C   tau(  14) = (  0.7495183  0.7495183 -0.0008064  )
        15           C   tau(  15) = (  0.4999857  0.4999857 -0.0004113  )
        16           C   tau(  16) = (  0.7485950  0.7485950  0.4983467  )
        17           C   tau(  17) = (  0.5020796  0.2512089  0.7485652  )
        18           C   tau(  18) = (  0.5020796  0.7485652  0.2512089  )
        19           C   tau(  19) = (  0.4983467  0.7485950  0.7485950  )
        20           C   tau(  20) = ( -0.0009221  0.2504403  0.2504403  )
        21           C   tau(  21) = (  0.0008553  0.2501677  0.7491279  )
        22           C   tau(  22) = (  0.0008553  0.7491279  0.2501677  )
        23           C   tau(  23) = ( -0.0008064  0.7495183  0.7495183  )
        24           C   tau(  24) = (  0.2513474  0.4962569  0.2513474  )
        25           C   tau(  25) = (  0.2512089  0.5020796  0.7485652  )
        26           C   tau(  26) = (  0.2504403 -0.0009221  0.2504403  )
        27           C   tau(  27) = (  0.2501677  0.0008553  0.7491279  )
        28           C   tau(  28) = (  0.7485652  0.5020796  0.2512089  )
        29           C   tau(  29) = (  0.7485950  0.4983467  0.7485950  )
        30           C   tau(  30) = (  0.4962569  0.2513474  0.2513474  )
        31           C   tau(  31) = (  0.7491279  0.0008553  0.2501677  )
        32           C   tau(  32) = (  0.6242646  0.8737038  0.6242646  )
        33           C   tau(  33) = (  0.6361377  0.3627458  0.6361377  )
        34           C   tau(  34) = (  0.3756999  0.8762203  0.8762203  )
        35           C   tau(  35) = (  0.3757766  0.8735823  0.3757766  )
        36           C   tau(  36) = (  0.8762203  0.3756999  0.8762203  )
        37           C   tau(  37) = (  0.8735823  0.3757766  0.3757766  )
        38           C   tau(  38) = (  0.8745012  0.8745012  0.8745012  )
        39           C   tau(  39) = (  0.8762203  0.8762203  0.3756999  )
        40           C   tau(  40) = (  0.1253710  0.1253710  0.8744146  )
        41           C   tau(  41) = (  0.1245202  0.1245202  0.3748727  )
        42           C   tau(  42) = (  0.1236457  0.6243394  0.8761297  )
        43           C   tau(  43) = (  0.1266123  0.6234354  0.3763806  )
        44           C   tau(  44) = (  0.6243394  0.1236457  0.8761297  )
        45           C   tau(  45) = (  0.6234354  0.1266123  0.3763806  )
        46           C   tau(  46) = (  0.6243394  0.8761297  0.1236457  )
        47           C   tau(  47) = (  0.6242646  0.6242646  0.8737038  )
        48           C   tau(  48) = (  0.3748727  0.1245202  0.1245202  )
        49           C   tau(  49) = (  0.3763806  0.1266123  0.6234354  )
        50           C   tau(  50) = (  0.3763806  0.6234354  0.1266123  )
        51           C   tau(  51) = (  0.3627458  0.6361377  0.6361377  )
        52           C   tau(  52) = (  0.8744146  0.1253710  0.1253710  )
        53           C   tau(  53) = (  0.8761297  0.1236457  0.6243394  )
        54           C   tau(  54) = (  0.8761297  0.6243394  0.1236457  )
        55           C   tau(  55) = (  0.8737038  0.6242646  0.6242646  )
        56           C   tau(  56) = (  0.1245202  0.3748727  0.1245202  )
        57           C   tau(  57) = (  0.1266123  0.3763806  0.6234354  )
        58           C   tau(  58) = (  0.1253710  0.8744146  0.1253710  )
        59           C   tau(  59) = (  0.1236457  0.8761297  0.6243394  )
        60           C   tau(  60) = (  0.6234354  0.3763806  0.1266123  )
        61           C   tau(  61) = (  0.6361377  0.6361377  0.3627458  )
        62           C   tau(  62) = (  0.7495183 -0.0008064  0.7495183  )
        63           N   tau(  63) = (  0.3676010  0.3676010  0.3676010  )

     number of k points=     6  Marzari-Vanderbilt smearing, width (Ry)=  0.0010
                       cart. coord. in units 2pi/alat
        k(    1) = (   0.0000000   0.0000000   0.0000000), wk =   0.0370370
        k(    2) = (   0.0000000   0.0000000   0.3333333), wk =   0.2222222
        k(    3) = (   0.0000000   0.3333333   0.3333333), wk =   0.2222222
        k(    4) = (   0.3333333   0.3333333   0.3333333), wk =   0.0740741
        k(    5) = (  -0.3333333   0.0000000   0.3333333), wk =   0.2222222
        k(    6) = (   0.3333333  -0.3333333   0.3333333), wk =   0.2222222

                       cryst. coord.
        k(    1) = (   0.0000000   0.0000000   0.0000000), wk =   0.0370370
        k(    2) = (   0.0000000   0.0000000   0.3333333), wk =   0.2222222
        k(    3) = (   0.0000000   0.3333333   0.3333333), wk =   0.2222222
        k(    4) = (   0.3333333   0.3333333   0.3333333), wk =   0.0740741
        k(    5) = (  -0.3333333   0.0000000   0.3333333), wk =   0.2222222
        k(    6) = (   0.3333333  -0.3333333   0.3333333), wk =   0.2222222

     Dense  grid:   194039 G-vectors     FFT dimensions: (  72,  72,  72)

     Estimated max dynamical RAM per process >      60.23MB

     Estimated total allocated dynamical RAM >    5782.56MB
     Generating pointlists ...
     new r_m :   0.0856 (alat units)  1.1543 (a.u.) for type    1
     new r_m :   0.0861 (alat units)  1.1614 (a.u.) for type    2

     Initial potential from superposition of free atoms

     starting charge  252.99722, renormalised to  254.00000
     Starting wfc are  252 randomized atomic wfcs

     total cpu time spent up to now is        3.8 secs

     per-process dynamical memory:    59.5 Mb

     Self-consistent Calculation

     iteration #  1     ecut=    70.00 Ry     beta=0.50
     Davidson diagonalization with overlap
     ethr =  1.00E-02,  avg # of iterations =  3.0

     total cpu time spent up to now is        6.1 secs

     total energy              =    -724.33394063 Ry
     Harris-Foulkes estimate   =    -724.78283162 Ry
     estimated scf accuracy    <       4.23766836 Ry

     total magnetization       =     0.00 Bohr mag/cell
     absolute magnetization    =     0.90 Bohr mag/cell

     iteration #  2     ecut=    70.00 Ry     beta=0.50
     Davidson diagonalization with overlap
     ethr =  1.67E-03,  avg # of iterations =  2.0

     total cpu time spent up to now is        7.5 secs

     total energy              =    -724.66108263 Ry
     Harris-Foulkes estimate   =    -724.57892193 Ry
     estimated scf accuracy    <       0.67048205 Ry

     total magnetization       =    -0.00 Bohr mag/cell
     absolute magnetization    =     0.35 Bohr mag/cell

     iteration #  3     ecut=    70.00 Ry     beta=0.50
     Davidson diagonalization with overlap
     ethr =  2.64E-04,  avg # of iterations =  8.8

     total cpu time spent up to now is       11.6 secs

     total energy              =    -724.73086674 Ry
     Harris-Foulkes estimate   =    -724.77173790 Ry
     estimated scf accuracy    <       0.15172613 Ry

     total magnetization       =     0.00 Bohr mag/cell
     absolute magnetization    =     0.11 Bohr mag/cell

     iteration #  4     ecut=    70.00 Ry     beta=0.50
     Davidson diagonalization with overlap
     ethr =  5.97E-05,  avg # of iterations =  7.6

     total cpu time spent up to now is       15.5 secs

     total energy              =    -724.76918255 Ry
     Harris-Foulkes estimate   =    -724.76680162 Ry
     estimated scf accuracy    <       0.01317815 Ry

     total magnetization       =    -0.00 Bohr mag/cell
     absolute magnetization    =     0.07 Bohr mag/cell

     iteration #  5     ecut=    70.00 Ry     beta=0.50
     Davidson diagonalization with overlap
     ethr =  5.19E-06,  avg # of iterations =  8.2

     total cpu time spent up to now is       19.9 secs

     total energy              =    -724.77249555 Ry
     Harris-Foulkes estimate   =    -724.77221214 Ry
     estimated scf accuracy    <       0.00153284 Ry

     total magnetization       =    -0.00 Bohr mag/cell
     absolute magnetization    =     0.04 Bohr mag/cell

     iteration #  6     ecut=    70.00 Ry     beta=0.50
     Davidson diagonalization with overlap
     ethr =  6.03E-07,  avg # of iterations =  5.2

     total cpu time spent up to now is       22.7 secs

     total energy              =    -724.77275202 Ry
     Harris-Foulkes estimate   =    -724.77277545 Ry
     estimated scf accuracy    <       0.00020080 Ry

     total magnetization       =    -0.00 Bohr mag/cell
     absolute magnetization    =     0.02 Bohr mag/cell

     iteration #  7     ecut=    70.00 Ry     beta=0.50
     Davidson diagonalization with overlap
     ethr =  7.91E-08,  avg # of iterations =  3.0

     total cpu time spent up to now is       24.7 secs

     total energy              =    -724.77280870 Ry
     Harris-Foulkes estimate   =    -724.77281798 Ry
     estimated scf accuracy    <       0.00003696 Ry

     total magnetization       =    -0.00 Bohr mag/cell
     absolute magnetization    =     0.01 Bohr mag/cell

     iteration #  8     ecut=    70.00 Ry     beta=0.50
     Davidson diagonalization with overlap
     ethr =  1.46E-08,  avg # of iterations =  2.8

     total cpu time spent up to now is       26.5 secs

     total energy              =    -724.77281680 Ry
     Harris-Foulkes estimate   =    -724.77281672 Ry
     estimated scf accuracy    <       0.00000292 Ry

     total magnetization       =     0.00 Bohr mag/cell
     absolute magnetization    =     0.01 Bohr mag/cell

     iteration #  9     ecut=    70.00 Ry     beta=0.50
     Davidson diagonalization with overlap
     ethr =  1.15E-09,  avg # of iterations =  3.1
 
     Magnetic moment per site:
     atom:    1    charge:    1.8294    magn:   -0.0000    constr:    0.0000
     atom:    2    charge:    1.8498    magn:   -0.0000    constr:    0.0000
     atom:    3    charge:    1.8381    magn:    0.0000    constr:    0.0000
     atom:    4    charge:    1.8498    magn:   -0.0000    constr:    0.0000
     atom:    5    charge:    1.8381    magn:    0.0000    constr:    0.0000
     atom:    6    charge:    1.8274    magn:    0.0000    constr:    0.0000
     atom:    7    charge:    1.8498    magn:   -0.0000    constr:    0.0000
     atom:    8    charge:    1.8307    magn:    0.0000    constr:    0.0000
     atom:    9    charge:    1.8048    magn:   -0.0001    constr:    0.0000
     atom:   10    charge:    1.8259    magn:    0.0000    constr:    0.0000
     atom:   11    charge:    1.8408    magn:    0.0000    constr:    0.0000
     atom:   12    charge:    1.8259    magn:    0.0000    constr:    0.0000
     atom:   13    charge:    1.8408    magn:    0.0000    constr:    0.0000
     atom:   14    charge:    1.8299    magn:    0.0000    constr:    0.0000
     atom:   15    charge:    1.8381    magn:    0.0000    constr:    0.0000
     atom:   16    charge:    1.8375    magn:    0.0000    constr:    0.0000
     atom:   17    charge:    1.8408    magn:    0.0000    constr:    0.0000
     atom:   18    charge:    1.8408    magn:    0.0000    constr:    0.0000
     atom:   19    charge:    1.8375    magn:    0.0000    constr:    0.0000
     atom:   20    charge:    1.8307    magn:    0.0000    constr:    0.0000
     atom:   21    charge:    1.8259    magn:    0.0000    constr:    0.0000
     atom:   22    charge:    1.8259    magn:    0.0000    constr:    0.0000
     atom:   23    charge:    1.8299    magn:    0.0000    constr:    0.0000
     atom:   24    charge:    1.8048    magn:   -0.0001    constr:    0.0000
     atom:   25    charge:    1.8408    magn:    0.0000    constr:    0.0000
     atom:   26    charge:    1.8307    magn:    0.0000    constr:    0.0000
     atom:   27    charge:    1.8259    magn:    0.0000    constr:    0.0000
     atom:   28    charge:    1.8408    magn:    0.0000    constr:    0.0000
     atom:   29    charge:    1.8375    magn:    0.0000    constr:    0.0000
     atom:   30    charge:    1.8048    magn:   -0.0001    constr:    0.0000
     atom:   31    charge:    1.8259    magn:    0.0000    constr:    0.0000
     atom:   32    charge:    1.8305    magn:    0.0000    constr:    0.0000
     atom:   33    charge:    1.8496    magn:    0.0000    constr:    0.0000
     atom:   34    charge:    1.8274    magn:    0.0000    constr:    0.0000
     atom:   35    charge:    1.8294    magn:   -0.0000    constr:    0.0000
     atom:   36    charge:    1.8274    magn:    0.0000    constr:    0.0000
     atom:   37    charge:    1.8294    magn:   -0.0000    constr:    0.0000
     atom:   38    charge:    1.8340    magn:    0.0000    constr:    0.0000
     atom:   39    charge:    1.8274    magn:    0.0000    constr:    0.0000
     atom:   40    charge:    1.8336    magn:    0.0000    constr:    0.0000
     atom:   41    charge:    1.8387    magn:    0.0000    constr:    0.0000
     atom:   42    charge:    1.8331    magn:    0.0000    constr:    0.0000
     atom:   43    charge:    1.8283    magn:    0.0000    constr:    0.0000
     atom:   44    charge:    1.8331    magn:    0.0000    constr:    0.0000
     atom:   45    charge:    1.8283    magn:    0.0000    constr:    0.0000
     atom:   46    charge:    1.8331    magn:    0.0000    constr:    0.0000
     atom:   47    charge:    1.8305    magn:    0.0000    constr:    0.0000
     atom:   48    charge:    1.8387    magn:    0.0000    constr:    0.0000
     atom:   49    charge:    1.8283    magn:    0.0000    constr:    0.0000
     atom:   50    charge:    1.8283    magn:    0.0000    constr:    0.0000
     atom:   51    charge:    1.8496    magn:    0.0000    constr:    0.0000
     atom:   52    charge:    1.8336    magn:    0.0000    constr:    0.0000
     atom:   53    charge:    1.8331    magn:    0.0000    constr:    0.0000
     atom:   54    charge:    1.8331    magn:    0.0000    constr:    0.0000
     atom:   55    charge:    1.8305    magn:    0.0000    constr:    0.0000
     atom:   56    charge:    1.8387    magn:    0.0000    constr:    0.0000
     atom:   57    charge:    1.8283    magn:    0.0000    constr:    0.0000
     atom:   58    charge:    1.8336    magn:    0.0000    constr:    0.0000
     atom:   59    charge:    1.8331    magn:    0.0000    constr:    0.0000
     atom:   60    charge:    1.8283    magn:    0.0000    constr:    0.0000
     atom:   61    charge:    1.8496    magn:    0.0000    constr:    0.0000
     atom:   62    charge:    1.8299    magn:    0.0000    constr:    0.0000
     atom:   63    charge:    2.9396    magn:    0.0007    constr:    0.0000

     total cpu time spent up to now is       28.8 secs

     End of self-consistent calculation

 ------ SPIN UP ------------


          k = 0.0000 0.0000 0.0000 ( 24207 PWs)   bands (ev):

    -8.5516  -6.8946  -6.2904  -6.2904  -6.1805  -6.1805  -5.8847  -4.9113
    -4.1473  -4.1473  -4.1154  -4.1154  -4.0387  -4.0313  -4.0313  -3.9490
    -3.8819  -3.8819  -3.3679  -2.9644  -2.6841  -2.6841  -2.1076  -0.3766
    -0.3766  -0.3574  -0.3274  -0.1101   0.1609   0.1609   0.2694   0.2694
     0.3442   0.5872   0.8125   0.8125   0.9492   0.9536   0.9536   1.0115
     1.0151   1.0151   1.3223   1.3223   3.0644   3.9302   3.9302   4.0370
     4.1777   4.1777   4.1786   4.2296   4.2318   4.2318   4.3933   4.3933
     4.4552   4.4552   4.5381   4.6298   4.6298   4.6299   4.6318   4.7390
     4.7390   4.8657   4.9262   4.9262   5.0304   5.1814   5.1814   5.2633
     5.3150   5.3150   5.3484   5.3773   5.3773   6.0033   6.0033   6.0411
     6.6048   6.6048   6.6818   6.9781   6.9904   6.9904   7.5257   8.3104
     8.3104   8.3674   8.4233   8.4233   8.6168   8.6168   8.7429   8.7707
     8.7707   8.7856   8.8350   8.8350   8.8429   9.2253   9.2331   9.2331
     9.6503   9.6503   9.8363   9.8519   9.8749   9.8749   9.8758   9.9223
     9.9223   9.9437   9.9576   9.9576  10.0432  10.0432  10.2446  10.2507
    10.2507  11.0798  12.3067  12.4227  12.4227  14.0089  15.2721  15.2721
    17.2865  17.3263  17.3263  17.4673  17.5291  17.5291  17.7940  17.8840
    17.8840  17.9872  17.9872  18.3453  18.9000  18.9000  18.9359  20.6050
    20.7530  20.7530  20.8008  20.8782  20.8782  20.9667  20.9668  20.9683

     occupation numbers 
     1.0000   1.0000   1.0000   1.0000   1.0000   1.0000   1.0000   1.0000
     1.0000   1.0000   1.0000   1.0000   1.0000   1.0000   1.0000   1.0000
     1.0000   1.0000   1.0000   1.0000   1.0000   1.0000   1.0000   1.0000
     1.0000   1.0000   1.0000   1.0000   1.0000   1.0000   1.0000   1.0000
     1.0000   1.0000   1.0000   1.0000   1.0000   1.0000   1.0000   1.0000
     1.0000   1.0000   1.0000   1.0000   1.0000   1.0000   1.0000   1.0000
     1.0000   1.0000   1.0000   1.0000   1.0000   1.0000   1.0000   1.0000
     1.0000   1.0000   1.0000   1.0000   1.0000   1.0000   1.0000   1.0000
     1.0000   1.0000   1.0000   1.0000   1.0000   1.0000   1.0000   1.0000
     1.0000   1.0000   1.0000   1.0000   1.0000   1.0000   1.0000   1.0000
     1.0000   1.0000   1.0000   1.0000   1.0000   1.0000   1.0000   1.0000
     1.0000   1.0000   1.0000   1.0000   1.0000   1.0000   1.0000   1.0000
     1.0000   1.0000   1.0000   1.0000   1.0000   1.0000   1.0000   1.0000
     1.0000   1.0000   1.0000   1.0000   1.0000   1.0000   1.0000   1.0000
     1.0000   1.0000   1.0000   1.0000   1.0000   1.0000   1.0000   1.0000
     1.0000   1.0000   1.0000   1.0000   1.0000   1.0000   0.0000   0.0000
     0.0000   0.0000   0.0000   0.0000   0.0000   0.0000   0.0000   0.0000
     0.0000   0.0000   0.0000   0.0000   0.0000   0.0000   0.0000   0.0000
     0.0000   0.0000   0.0000   0.0000   0.0000   0.0000   0.0000   0.0000

          k = 0.0000 0.0000 0.3333 ( 24280 PWs)   bands (ev):

    -8.3171  -7.5518  -6.5195  -6.0448  -5.9390  -5.8251  -5.4888  -5.3048
    -5.1888  -4.9852  -4.5118  -4.1168  -3.8287  -3.7951  -3.6942  -3.4350
    -3.2231  -3.1553  -2.9358  -2.5991  -2.5166  -2.3994  -2.3231  -1.7726
    -0.8294  -0.7032  -0.5958  -0.3482   0.1830   0.2797   0.3436   0.3875
     0.4684   0.5495   0.5677   0.6559   0.7236   0.7478   0.9693   1.4741
     1.9927   2.0080   2.1403   2.2334   2.4059   2.4785   2.4785   2.7389
     2.9520   2.9967   3.1577   3.1669   3.8945   3.9775   4.0458   4.0584
     4.2831   4.3704   4.5127   4.5503   5.0898   5.1109   5.1424   5.1962
     5.1975   5.6007   5.6134   5.7131   5.7287   6.0668   6.1086   6.1719
     6.1867   6.3206   6.4011   6.4497   6.4914   6.6096   6.6231   6.7449
     6.7507   6.8802   6.8958   6.9282   7.1339   7.1577   7.1804   7.2507
     7.4195   7.4662   7.6702   7.7715   7.8290   8.0426   8.1490   8.2685
     8.2914   8.4332   8.6789   8.7012   8.7620   9.0995   9.1813   9.3537
     9.3729   9.6306   9.6502   9.7101   9.7619   9.9102   9.9312   9.9389
     9.9635   9.9995  10.1007  10.1192  10.1542  10.2647  10.2709  10.3591
    10.3672  11.3732  11.6983  11.7231  12.0442  13.7739  14.9668  15.1438
    17.1926  17.2915  17.9444  18.3074  18.3496  18.4812  18.5089  18.6119
    18.8217  18.8337  18.9885  19.0802  19.2060  19.8263  19.8600  20.4751
    20.6617  20.6845  20.7835  20.7850  20.8260  20.8538  20.9058  20.9447

     occupation numbers 
     1.0000   1.0000   1.0000   1.0000   1.0000   1.0000   1.0000   1.0000
     1.0000   1.0000   1.0000   1.0000   1.0000   1.0000   1.0000   1.0000
     1.0000   1.0000   1.0000   1.0000   1.0000   1.0000   1.0000   1.0000
     1.0000   1.0000   1.0000   1.0000   1.0000   1.0000   1.0000   1.0000
     1.0000   1.0000   1.0000   1.0000   1.0000   1.0000   1.0000   1.0000
     1.0000   1.0000   1.0000   1.0000   1.0000   1.0000   1.0000   1.0000
     1.0000   1.0000   1.0000   1.0000   1.0000   1.0000   1.0000   1.0000
     1.0000   1.0000   1.0000   1.0000   1.0000   1.0000   1.0000   1.0000
     1.0000   1.0000   1.0000   1.0000   1.0000   1.0000   1.0000   1.0000
     1.0000   1.0000   1.0000   1.0000   1.0000   1.0000   1.0000   1.0000
     1.0000   1.0000   1.0000   1.0000   1.0000   1.0000   1.0000   1.0000
     1.0000   1.0000   1.0000   1.0000   1.0000   1.0000   1.0000   1.0000
     1.0000   1.0000   1.0000   1.0000   1.0000   1.0000   1.0000   1.0000
     1.0000   1.0000   1.0000   1.0000   1.0000   1.0000   1.0000   1.0000
     1.0000   1.0000   1.0000   1.0000   1.0000   1.0000   1.0000   1.0000
     1.0000   1.0000   1.0000   1.0000   1.0000   1.0000   1.0000   0.0000
     0.0000   0.0000   0.0000   0.0000   0.0000   0.0000   0.0000   0.0000
     0.0000   0.0000   0.0000   0.0000   0.0000   0.0000   0.0000   0.0000
     0.0000   0.0000   0.0000   0.0000   0.0000   0.0000   0.0000   0.0000

          k = 0.0000 0.3333 0.3333 ( 24236 PWs)   bands (ev):

    -8.0950  -7.3594  -7.2407  -6.5633  -5.9477  -5.6813  -5.3174  -5.0284
    -5.0007  -4.8466  -4.4943  -4.2707  -4.2318  -3.9447  -3.5376  -3.5116
    -2.7620  -2.3844  -2.3285  -2.3264  -2.2097  -2.1906  -2.0526  -1.8976
    -1.5079  -1.3140  -1.1000  -0.9262  -0.5479  -0.0136   0.0622   0.1161
     0.1788   0.4739   0.6895   1.1775   1.1916   1.2955   1.3701   1.4036
     1.4519   1.4587   1.9406   2.0660   2.1306   2.4058   2.7290   2.8273
     2.9621   3.5202   3.6533   3.7034   3.7825   3.8104   3.9706   4.0271
     4.1014   4.5529   4.6752   4.8270   5.0158   5.0554   5.1409   5.2995
     5.3595   5.5848   5.6467   5.6858   5.7473   5.9866   6.0257   6.0768
     6.1337   6.2244   6.2627   6.4967   6.5344   6.5970   6.6451   6.8556
     6.9021   6.9371   7.0285   7.0384   7.2328   7.2879   7.4990   7.7098
     7.9266   7.9445   8.0747   8.0881   8.1128   8.2133   8.2576   8.3169
     8.3372   8.3985   8.5377   8.6187   8.7026   8.7085   8.8402   8.8818
     9.0545   9.1892   9.2361   9.3076   9.4591   9.4799   9.5733   9.6251
     9.6952   9.7963   9.8988  10.0400  10.0443  10.1076  10.4432  10.7577
    11.0205  11.2004  11.5463  11.8695  12.2173  13.5922  14.9055  15.2051
    18.0654  18.1976  18.2381  18.3011  18.3503  18.8239  18.8547  18.9728
    19.1788  19.2307  19.4435  19.4700  19.6966  19.7979  19.9756  20.0166
    20.1968  20.4593  20.4789  20.5060  20.5653  20.5871  20.6115  20.6479

     occupation numbers 
     1.0000   1.0000   1.0000   1.0000   1.0000   1.0000   1.0000   1.0000
     1.0000   1.0000   1.0000   1.0000   1.0000   1.0000   1.0000   1.0000
     1.0000   1.0000   1.0000   1.0000   1.0000   1.0000   1.0000   1.0000
     1.0000   1.0000   1.0000   1.0000   1.0000   1.0000   1.0000   1.0000
     1.0000   1.0000   1.0000   1.0000   1.0000   1.0000   1.0000   1.0000
     1.0000   1.0000   1.0000   1.0000   1.0000   1.0000   1.0000   1.0000
     1.0000   1.0000   1.0000   1.0000   1.0000   1.0000   1.0000   1.0000
     1.0000   1.0000   1.0000   1.0000   1.0000   1.0000   1.0000   1.0000
     1.0000   1.0000   1.0000   1.0000   1.0000   1.0000   1.0000   1.0000
     1.0000   1.0000   1.0000   1.0000   1.0000   1.0000   1.0000   1.0000
     1.0000   1.0000   1.0000   1.0000   1.0000   1.0000   1.0000   1.0000
     1.0000   1.0000   1.0000   1.0000   1.0000   1.0000   1.0000   1.0000
     1.0000   1.0000   1.0000   1.0000   1.0000   1.0000   1.0000   1.0000
     1.0000   1.0000   1.0000   1.0000   1.0000   1.0000   1.0000   1.0000
     1.0000   1.0000   1.0000   1.0000   1.0000   1.0000   1.0000   1.0000
     1.0000   1.0000   1.0000   1.0000   1.0000   1.0000   1.0000   0.0000
     0.0000   0.0000   0.0000   0.0000   0.0000   0.0000   0.0000   0.0000
     0.0000   0.0000   0.0000   0.0000   0.0000   0.0000   0.0000   0.0000
     0.0000   0.0000   0.0000   0.0000   0.0000   0.0000   0.0000   0.0000

          k = 0.3333 0.3333 0.3333 ( 24303 PWs)   bands (ev):

    -7.8892  -7.1808  -6.9920  -6.9920  -6.2755  -6.2353  -6.2353  -5.4592
    -4.1878  -4.0440  -4.0440  -3.5179  -3.3946  -3.3946  -3.3353  -3.3080
    -3.3080  -2.9113  -2.6749  -2.6749  -1.9515  -1.9071  -1.9071  -1.5424
    -1.4572  -1.4572  -1.4092  -1.4092  -1.3724  -1.2296  -1.2296   0.0609
     0.8483   0.8483   0.9899   0.9899   0.9921   1.3057   1.8238   1.8238
     1.8566   1.9181   2.0097   2.0097   2.5923   2.5923   2.6002   2.6862
     2.7167   2.7167   3.1463   3.1463   3.5340   4.0664   4.2918   4.2918
     4.8175   4.9335   4.9372   4.9372   5.0828   5.0828   5.1466   5.3123
     5.3123   5.4080   5.4982   5.4982   5.5953   5.5953   5.6497   6.3837
     6.7309   6.7309   6.9299   6.9708   6.9708   6.9995   7.0699   7.0699
     7.1886   7.1886   7.2323   7.2577   7.2577   7.2654   7.3487   7.3541
     7.3541   7.4894   7.7332   7.7332   7.9228   7.9228   7.9549   7.9790
     8.1778   8.1778   8.2793   8.3033   8.3033   8.4155   8.4664   8.4664
     8.6755   8.6755   8.8686   9.0420   9.1080   9.5282   9.5282   9.7897
     9.7897  10.4822  10.4879  10.4879  10.5970  10.9377  10.9377  11.2626
    11.2626  11.2659  11.5218  11.6653  11.6653  13.4930  15.1983  15.1983
    18.1401  18.2452  18.2452  18.4561  18.6491  18.6491  19.2108  19.4000
    19.4000  19.5373  19.5373  19.5780  19.6132  19.6132  19.6491  19.7451
    19.7452  19.8673  19.9219  19.9219  20.0028  20.0029  20.0200  20.1415

     occupation numbers 
     1.0000   1.0000   1.0000   1.0000   1.0000   1.0000   1.0000   1.0000
     1.0000   1.0000   1.0000   1.0000   1.0000   1.0000   1.0000   1.0000
     1.0000   1.0000   1.0000   1.0000   1.0000   1.0000   1.0000   1.0000
     1.0000   1.0000   1.0000   1.0000   1.0000   1.0000   1.0000   1.0000
     1.0000   1.0000   1.0000   1.0000   1.0000   1.0000   1.0000   1.0000
     1.0000   1.0000   1.0000   1.0000   1.0000   1.0000   1.0000   1.0000
     1.0000   1.0000   1.0000   1.0000   1.0000   1.0000   1.0000   1.0000
     1.0000   1.0000   1.0000   1.0000   1.0000   1.0000   1.0000   1.0000
     1.0000   1.0000   1.0000   1.0000   1.0000   1.0000   1.0000   1.0000
     1.0000   1.0000   1.0000   1.0000   1.0000   1.0000   1.0000   1.0000
     1.0000   1.0000   1.0000   1.0000   1.0000   1.0000   1.0000   1.0000
     1.0000   1.0000   1.0000   1.0000   1.0000   1.0000   1.0000   1.0000
     1.0000   1.0000   1.0000   1.0000   1.0000   1.0000   1.0000   1.0000
     1.0000   1.0000   1.0000   1.0000   1.0000   1.0000   1.0000   1.0000
     1.0000   1.0000   1.0000   1.0000   1.0000   1.0000   1.0000   1.0000
     1.0000   1.0000   1.0000   1.0000   1.0000   1.0000   0.0000   0.0000
     0.0000   0.0000   0.0000   0.0000   0.0000   0.0000   0.0000   0.0000
     0.0000   0.0000   0.0000   0.0000   0.0000   0.0000   0.0000   0.0000
     0.0000   0.0000   0.0000   0.0000   0.0000   0.0000   0.0000   0.0000

          k =-0.3333 0.0000 0.3333 ( 24236 PWs)   bands (ev):

    -8.0816  -7.4831  -7.1106  -6.5526  -5.9772  -5.6856  -5.3702  -5.0326
    -4.9393  -4.7833  -4.5203  -4.2893  -4.2295  -4.0561  -3.5991  -3.3357
    -2.7719  -2.4053  -2.3653  -2.3061  -2.1964  -2.1635  -2.1132  -1.6585
    -1.6484  -1.3185  -1.1248  -0.9787  -0.6128   0.0090   0.0782   0.1207
     0.2517   0.4764   0.8693   1.0607   1.2143   1.2328   1.2426   1.3988
     1.4713   1.5767   1.8488   1.9112   2.1311   2.5754   2.6816   2.8571
     2.9431   3.5148   3.6576   3.7048   3.7831   3.8828   4.0245   4.1087
     4.1779   4.3899   4.6326   4.8126   4.9657   5.0253   5.1859   5.2428
     5.4047   5.5602   5.6470   5.6727   5.7878   6.0375   6.0784   6.1245
     6.1669   6.2137   6.2587   6.4414   6.4778   6.6076   6.6394   6.8248
     6.8905   6.9542   7.0020   7.0902   7.2176   7.3959   7.5031   7.6786
     7.8494   7.9056   7.9644   8.0671   8.1724   8.2130   8.2431   8.2786
     8.3667   8.4301   8.5253   8.5894   8.7126   8.7464   8.8828   8.9647
     9.0705   9.1374   9.2273   9.3142   9.4515   9.4889   9.5036   9.6487
     9.7261   9.7371   9.9231  10.0240  10.0667  10.1026  10.4863  10.8749
    10.9774  11.1643  11.4946  11.7580  12.2578  13.8415  14.8117  15.1091
    18.0353  18.2085  18.2513  18.3043  18.3753  18.7845  18.9254  19.1041
    19.1495  19.2767  19.3634  19.4782  19.7038  19.8489  19.8791  20.0267
    20.2330  20.3563  20.4191  20.5057  20.5637  20.5785  20.6340  20.6754

     occupation numbers 
     1.0000   1.0000   1.0000   1.0000   1.0000   1.0000   1.0000   1.0000
     1.0000   1.0000   1.0000   1.0000   1.0000   1.0000   1.0000   1.0000
     1.0000   1.0000   1.0000   1.0000   1.0000   1.0000   1.0000   1.0000
     1.0000   1.0000   1.0000   1.0000   1.0000   1.0000   1.0000   1.0000
     1.0000   1.0000   1.0000   1.0000   1.0000   1.0000   1.0000   1.0000
     1.0000   1.0000   1.0000   1.0000   1.0000   1.0000   1.0000   1.0000
     1.0000   1.0000   1.0000   1.0000   1.0000   1.0000   1.0000   1.0000
     1.0000   1.0000   1.0000   1.0000   1.0000   1.0000   1.0000   1.0000
     1.0000   1.0000   1.0000   1.0000   1.0000   1.0000   1.0000   1.0000
     1.0000   1.0000   1.0000   1.0000   1.0000   1.0000   1.0000   1.0000
     1.0000   1.0000   1.0000   1.0000   1.0000   1.0000   1.0000   1.0000
     1.0000   1.0000   1.0000   1.0000   1.0000   1.0000   1.0000   1.0000
     1.0000   1.0000   1.0000   1.0000   1.0000   1.0000   1.0000   1.0000
     1.0000   1.0000   1.0000   1.0000   1.0000   1.0000   1.0000   1.0000
     1.0000   1.0000   1.0000   1.0000   1.0000   1.0000   1.0000   1.0000
     1.0000   1.0000   1.0000   1.0000   1.0000   1.0000   1.0000   0.5000
     0.0000   0.0000   0.0000   0.0000   0.0000   0.0000   0.0000   0.0000
     0.0000   0.0000   0.0000   0.0000   0.0000   0.0000   0.0000   0.0000
     0.0000   0.0000   0.0000   0.0000   0.0000   0.0000   0.0000   0.0000

          k = 0.3333-0.3333 0.3333 ( 24303 PWs)   bands (ev):

    -7.8628  -7.3301  -6.9923  -6.8298  -6.4652  -6.2347  -5.9907  -5.4901
    -4.4621  -4.0437  -3.9370  -3.7202  -3.4275  -3.3581  -3.3177  -3.2412
    -3.0822  -2.8890  -2.6922  -2.4319  -2.0689  -1.8925  -1.8555  -1.7194
    -1.4857  -1.4685  -1.4456  -1.3662  -1.3624  -1.2573  -1.1954  -0.0550
     0.7587   0.8532   0.9514   0.9976   1.0653   1.4229   1.7519   1.7758
     1.8520   1.9473   2.0321   2.2309   2.5842   2.6121   2.6810   2.7000
     2.7100   2.7758   2.9189   3.1719   3.5078   4.0037   4.2398   4.2948
     4.8317   4.8341   4.8564   5.0062   5.0312   5.0556   5.1868   5.2445
     5.2695   5.4277   5.4337   5.5029   5.6847   5.7758   5.8144   6.4752
     6.7260   6.7711   6.9216   6.9218   6.9674   7.0468   7.0645   7.0860
     7.1571   7.1601   7.2158   7.2552   7.2568   7.3210   7.3376   7.3516
     7.3640   7.4670   7.7231   7.7381   7.8328   7.9157   7.9431   7.9530
     8.1319   8.1498   8.2537   8.2825   8.3406   8.3987   8.4065   8.4707
     8.6979   8.7155   8.9528   8.9956   9.1135   9.5353   9.5728   9.7048
     9.8579  10.4054  10.5050  10.5084  10.5566  10.9266  10.9421  11.2038
    11.2263  11.2740  11.4708  11.7162  11.7415  13.8638  14.8833  15.1957
    18.0960  18.2638  18.3397  18.5335  18.6510  18.7247  19.1989  19.3849
    19.4435  19.5060  19.5317  19.5503  19.6037  19.6286  19.6603  19.7137
    19.7458  19.7931  19.9073  19.9248  19.9763  19.9881  20.0441  20.1500

     occupation numbers 
     1.0000   1.0000   1.0000   1.0000   1.0000   1.0000   1.0000   1.0000
     1.0000   1.0000   1.0000   1.0000   1.0000   1.0000   1.0000   1.0000
     1.0000   1.0000   1.0000   1.0000   1.0000   1.0000   1.0000   1.0000
     1.0000   1.0000   1.0000   1.0000   1.0000   1.0000   1.0000   1.0000
     1.0000   1.0000   1.0000   1.0000   1.0000   1.0000   1.0000   1.0000
     1.0000   1.0000   1.0000   1.0000   1.0000   1.0000   1.0000   1.0000
     1.0000   1.0000   1.0000   1.0000   1.0000   1.0000   1.0000   1.0000
     1.0000   1.0000   1.0000   1.0000   1.0000   1.0000   1.0000   1.0000
     1.0000   1.0000   1.0000   1.0000   1.0000   1.0000   1.0000   1.0000
     1.0000   1.0000   1.0000   1.0000   1.0000   1.0000   1.0000   1.0000
     1.0000   1.0000   1.0000   1.0000   1.0000   1.0000   1.0000   1.0000
     1.0000   1.0000   1.0000   1.0000   1.0000   1.0000   1.0000   1.0000
     1.0000   1.0000   1.0000   1.0000   1.0000   1.0000   1.0000   1.0000
     1.0000   1.0000   1.0000   1.0000   1.0000   1.0000   1.0000   1.0000
     1.0000   1.0000   1.0000   1.0000   1.0000   1.0000   1.0000   1.0000
     1.0000   1.0000   1.0000   1.0000   1.0000   1.0000   1.0000   0.0000
     0.0000   0.0000   0.0000   0.0000   0.0000   0.0000   0.0000   0.0000
     0.0000   0.0000   0.0000   0.0000   0.0000   0.0000   0.0000   0.0000
     0.0000   0.0000   0.0000   0.0000   0.0000   0.0000   0.0000   0.0000

 ------ SPIN DOWN ----------


          k = 0.0000 0.0000 0.0000 ( 24207 PWs)   bands (ev):

    -8.5516  -6.8941  -6.2906  -6.2906  -6.1806  -6.1806  -5.8848  -4.9109
    -4.1474  -4.1474  -4.1156  -4.1156  -4.0388  -4.0314  -4.0314  -3.9491
    -3.8820  -3.8820  -3.3680  -2.9643  -2.6842  -2.6842  -2.1075  -0.3767
    -0.3767  -0.3576  -0.3275  -0.1098   0.1608   0.1608   0.2693   0.2693
     0.3441   0.5873   0.8124   0.8124   0.9492   0.9535   0.9535   1.0115
     1.0150   1.0150   1.3223   1.3223   3.0644   3.9303   3.9303   4.0370
     4.1777   4.1777   4.1786   4.2295   4.2317   4.2317   4.3932   4.3932
     4.4551   4.4551   4.5380   4.6297   4.6297   4.6298   4.6317   4.7389
     4.7389   4.8656   4.9261   4.9261   5.0304   5.1814   5.1814   5.2632
     5.3148   5.3148   5.3483   5.3773   5.3773   6.0033   6.0033   6.0411
     6.6048   6.6048   6.6818   6.9781   6.9904   6.9904   7.5256   8.3106
     8.3106   8.3674   8.4233   8.4233   8.6169   8.6169   8.7428   8.7706
     8.7706   8.7856   8.8349   8.8349   8.8429   9.2253   9.2331   9.2331
     9.6504   9.6504   9.8363   9.8519   9.8749   9.8749   9.8758   9.9223
     9.9223   9.9437   9.9576   9.9576  10.0432  10.0432  10.2447  10.2508
    10.2508  11.0803  12.3067  12.4228  12.4228  14.0097  15.2721  15.2721
    17.2865  17.3262  17.3262  17.4673  17.5291  17.5291  17.7940  17.8839
    17.8839  17.9872  17.9872  18.3451  18.9001  18.9001  18.9360  20.6053
    20.7529  20.7529  20.8009  20.8783  20.8783  20.9667  20.9668  20.9683

     occupation numbers 
     1.0000   1.0000   1.0000   1.0000   1.0000   1.0000   1.0000   1.0000
     1.0000   1.0000   1.0000   1.0000   1.0000   1.0000   1.0000   1.0000
     1.0000   1.0000   1.0000   1.0000   1.0000   1.0000   1.0000   1.0000
     1.0000   1.0000   1.0000   1.0000   1.0000   1.0000   1.0000   1.0000
     1.0000   1.0000   1.0000   1.0000   1.0000   1.0000   1.0000   1.0000
     1.0000   1.0000   1.0000   1.0000   1.0000   1.0000   1.0000   1.0000
     1.0000   1.0000   1.0000   1.0000   1.0000   1.0000   1.0000   1.0000
     1.0000   1.0000   1.0000   1.0000   1.0000   1.0000   1.0000   1.0000
     1.0000   1.0000   1.0000   1.0000   1.0000   1.0000   1.0000   1.0000
     1.0000   1.0000   1.0000   1.0000   1.0000   1.0000   1.0000   1.0000
     1.0000   1.0000   1.0000   1.0000   1.0000   1.0000   1.0000   1.0000
     1.0000   1.0000   1.0000   1.0000   1.0000   1.0000   1.0000   1.0000
     1.0000   1.0000   1.0000   1.0000   1.0000   1.0000   1.0000   1.0000
     1.0000   1.0000   1.0000   1.0000   1.0000   1.0000   1.0000   1.0000
     1.0000   1.0000   1.0000   1.0000   1.0000   1.0000   1.0000   1.0000
     1.0000   1.0000   1.0000   1.0000   1.0000   1.0000   0.0000   0.0000
     0.0000   0.0000   0.0000   0.0000   0.0000   0.0000   0.0000   0.0000
     0.0000   0.0000   0.0000   0.0000   0.0000   0.0000   0.0000   0.0000
     0.0000   0.0000   0.0000   0.0000   0.0000   0.0000   0.0000   0.0000

          k = 0.0000 0.0000 0.3333 ( 24280 PWs)   bands (ev):

    -8.3172  -7.5518  -6.5191  -6.0450  -5.9391  -5.8253  -5.4888  -5.3050
    -5.1889  -4.9853  -4.5118  -4.1167  -3.8288  -3.7953  -3.6943  -3.4350
    -3.2233  -3.1554  -2.9359  -2.5992  -2.5167  -2.3995  -2.3232  -1.7726
    -0.8294  -0.7034  -0.5959  -0.3482   0.1830   0.2795   0.3435   0.3874
     0.4683   0.5494   0.5676   0.6558   0.7236   0.7477   0.9693   1.4740
     1.9926   2.0079   2.1402   2.2333   2.4058   2.4784   2.4784   2.7389
     2.9519   2.9966   3.1576   3.1668   3.8944   3.9774   4.0457   4.0583
     4.2830   4.3703   4.5127   4.5503   5.0898   5.1109   5.1424   5.1961
     5.1974   5.6007   5.6133   5.7131   5.7287   6.0668   6.1085   6.1719
     6.1866   6.3206   6.4011   6.4496   6.4914   6.6096   6.6230   6.7449
     6.7507   6.8802   6.8958   6.9282   7.1339   7.1577   7.1804   7.2506
     7.4195   7.4662   7.6702   7.7715   7.8290   8.0425   8.1491   8.2684
     8.2914   8.4332   8.6789   8.7013   8.7620   9.0995   9.1812   9.3537
     9.3730   9.6307   9.6503   9.7101   9.7620   9.9102   9.9312   9.9389
     9.9635   9.9995  10.1007  10.1193  10.1542  10.2648  10.2710  10.3592
    10.3672  11.3737  11.6983  11.7231  12.0443  13.7746  14.9667  15.1437
    17.1925  17.2914  17.9445  18.3075  18.3496  18.4812  18.5089  18.6119
    18.8217  18.8337  18.9885  19.0801  19.2060  19.8265  19.8602  20.4753
    20.6618  20.6845  20.7836  20.7850  20.8259  20.8538  20.9058  20.9446

     occupation numbers 
     1.0000   1.0000   1.0000   1.0000   1.0000   1.0000   1.0000   1.0000
     1.0000   1.0000   1.0000   1.0000   1.0000   1.0000   1.0000   1.0000
     1.0000   1.0000   1.0000   1.0000   1.0000   1.0000   1.0000   1.0000
     1.0000   1.0000   1.0000   1.0000   1.0000   1.0000   1.0000   1.0000
     1.0000   1.0000   1.0000   1.0000   1.0000   1.0000   1.0000   1.0000
     1.0000   1.0000   1.0000   1.0000   1.0000   1.0000   1.0000   1.0000
     1.0000   1.0000   1.0000   1.0000   1.0000   1.0000   1.0000   1.0000
     1.0000   1.0000   1.0000   1.0000   1.0000   1.0000   1.0000   1.0000
     1.0000   1.0000   1.0000   1.0000   1.0000   1.0000   1.0000   1.0000
     1.0000   1.0000   1.0000   1.0000   1.0000   1.0000   1.0000   1.0000
     1.0000   1.0000   1.0000   1.0000   1.0000   1.0000   1.0000   1.0000
     1.0000   1.0000   1.0000   1.0000   1.0000   1.0000   1.0000   1.0000
     1.0000   1.0000   1.0000   1.0000   1.0000   1.0000   1.0000   1.0000
     1.0000   1.0000   1.0000   1.0000   1.0000   1.0000   1.0000   1.0000
     1.0000   1.0000   1.0000   1.0000   1.0000   1.0000   1.0000   1.0000
     1.0000   1.0000   1.0000   1.0000   1.0000   1.0000   1.0000   0.0000
     0.0000   0.0000   0.0000   0.0000   0.0000   0.0000   0.0000   0.0000
     0.0000   0.0000   0.0000   0.0000   0.0000   0.0000   0.0000   0.0000
     0.0000   0.0000   0.0000   0.0000   0.0000   0.0000   0.0000   0.0000

          k = 0.0000 0.3333 0.3333 ( 24236 PWs)   bands (ev):

    -8.0950  -7.3593  -7.2408  -6.5633  -5.9476  -5.6815  -5.3172  -5.0286
    -5.0008  -4.8468  -4.4943  -4.2709  -4.2320  -3.9449  -3.5375  -3.5118
    -2.7618  -2.3845  -2.3286  -2.3265  -2.2098  -2.1907  -2.0528  -1.8976
    -1.5080  -1.3141  -1.1000  -0.9263  -0.5480  -0.0136   0.0622   0.1160
     0.1787   0.4738   0.6894   1.1773   1.1915   1.2954   1.3700   1.4035
     1.4518   1.4587   1.9405   2.0659   2.1305   2.4058   2.7290   2.8272
     2.9621   3.5201   3.6532   3.7033   3.7824   3.8104   3.9706   4.0270
     4.1014   4.5528   4.6751   4.8269   5.0157   5.0554   5.1409   5.2995
     5.3595   5.5847   5.6467   5.6858   5.7473   5.9867   6.0257   6.0768
     6.1336   6.2244   6.2626   6.4967   6.5343   6.5969   6.6450   6.8556
     6.9021   6.9371   7.0284   7.0384   7.2327   7.2879   7.4990   7.7098
     7.9266   7.9445   8.0747   8.0880   8.1128   8.2133   8.2576   8.3169
     8.3372   8.3985   8.5377   8.6187   8.7026   8.7086   8.8402   8.8818
     9.0545   9.1893   9.2361   9.3076   9.4591   9.4799   9.5733   9.6251
     9.6953   9.7963   9.8988  10.0400  10.0444  10.1076  10.4433  10.7578
    11.0205  11.2005  11.5463  11.8699  12.2173  13.5928  14.9054  15.2051
    18.0654  18.1975  18.2380  18.3011  18.3503  18.8239  18.8548  18.9729
    19.1789  19.2308  19.4435  19.4699  19.6965  19.7979  19.9755  20.0168
    20.1969  20.4594  20.4790  20.5061  20.5654  20.5872  20.6115  20.6480

     occupation numbers 
     1.0000   1.0000   1.0000   1.0000   1.0000   1.0000   1.0000   1.0000
     1.0000   1.0000   1.0000   1.0000   1.0000   1.0000   1.0000   1.0000
     1.0000   1.0000   1.0000   1.0000   1.0000   1.0000   1.0000   1.0000
     1.0000   1.0000   1.0000   1.0000   1.0000   1.0000   1.0000   1.0000
     1.0000   1.0000   1.0000   1.0000   1.0000   1.0000   1.0000   1.0000
     1.0000   1.0000   1.0000   1.0000   1.0000   1.0000   1.0000   1.0000
     1.0000   1.0000   1.0000   1.0000   1.0000   1.0000   1.0000   1.0000
     1.0000   1.0000   1.0000   1.0000   1.0000   1.0000   1.0000   1.0000
     1.0000   1.0000   1.0000   1.0000   1.0000   1.0000   1.0000   1.0000
     1.0000   1.0000   1.0000   1.0000   1.0000   1.0000   1.0000   1.0000
     1.0000   1.0000   1.0000   1.0000   1.0000   1.0000   1.0000   1.0000
     1.0000   1.0000   1.0000   1.0000   1.0000   1.0000   1.0000   1.0000
     1.0000   1.0000   1.0000   1.0000   1.0000   1.0000   1.0000   1.0000
     1.0000   1.0000   1.0000   1.0000   1.0000   1.0000   1.0000   1.0000
     1.0000   1.0000   1.0000   1.0000   1.0000   1.0000   1.0000   1.0000
     1.0000   1.0000   1.0000   1.0000   1.0000   1.0000   1.0000   0.0000
     0.0000   0.0000   0.0000   0.0000   0.0000   0.0000   0.0000   0.0000
     0.0000   0.0000   0.0000   0.0000   0.0000   0.0000   0.0000   0.0000
     0.0000   0.0000   0.0000   0.0000   0.0000   0.0000   0.0000   0.0000

          k = 0.3333 0.3333 0.3333 ( 24303 PWs)   bands (ev):

    -7.8891  -7.1806  -6.9922  -6.9922  -6.2755  -6.2355  -6.2355  -5.4592
    -4.1875  -4.0441  -4.0441  -3.5177  -3.3947  -3.3947  -3.3354  -3.3082
    -3.3082  -2.9113  -2.6750  -2.6750  -1.9515  -1.9073  -1.9073  -1.5424
    -1.4573  -1.4573  -1.4093  -1.4093  -1.3725  -1.2296  -1.2296   0.0609
     0.8481   0.8481   0.9898   0.9898   0.9921   1.3056   1.8237   1.8237
     1.8565   1.9181   2.0096   2.0096   2.5922   2.5922   2.6002   2.6861
     2.7166   2.7166   3.1463   3.1463   3.5339   4.0663   4.2917   4.2917
     4.8174   4.9334   4.9371   4.9371   5.0827   5.0827   5.1466   5.3122
     5.3122   5.4080   5.4981   5.4981   5.5954   5.5954   5.6496   6.3837
     6.7310   6.7310   6.9298   6.9708   6.9708   6.9995   7.0698   7.0698
     7.1885   7.1885   7.2322   7.2576   7.2576   7.2653   7.3486   7.3540
     7.3540   7.4894   7.7332   7.7332   7.9228   7.9228   7.9549   7.9790
     8.1778   8.1778   8.2793   8.3032   8.3032   8.4155   8.4664   8.4664
     8.6755   8.6755   8.8687   9.0420   9.1080   9.5282   9.5282   9.7898
     9.7898  10.4822  10.4879  10.4879  10.5972  10.9378  10.9378  11.2626
    11.2626  11.2659  11.5220  11.6654  11.6654  13.4937  15.1982  15.1982
    18.1402  18.2451  18.2451  18.4561  18.6491  18.6491  19.2110  19.4000
    19.4000  19.5373  19.5373  19.5780  19.6131  19.6131  19.6490  19.7451
    19.7452  19.8673  19.9220  19.9220  20.0025  20.0028  20.0201  20.1415

     occupation numbers 
     1.0000   1.0000   1.0000   1.0000   1.0000   1.0000   1.0000   1.0000
     1.0000   1.0000   1.0000   1.0000   1.0000   1.0000   1.0000   1.0000
     1.0000   1.0000   1.0000   1.0000   1.0000   1.0000   1.0000   1.0000
     1.0000   1.0000   1.0000   1.0000   1.0000   1.0000   1.0000   1.0000
     1.0000   1.0000   1.0000   1.0000   1.0000   1.0000   1.0000   1.0000
     1.0000   1.0000   1.0000   1.0000   1.0000   1.0000   1.0000   1.0000
     1.0000   1.0000   1.0000   1.0000   1.0000   1.0000   1.0000   1.0000
     1.0000   1.0000   1.0000   1.0000   1.0000   1.0000   1.0000   1.0000
     1.0000   1.0000   1.0000   1.0000   1.0000   1.0000   1.0000   1.0000
     1.0000   1.0000   1.0000   1.0000   1.0000   1.0000   1.0000   1.0000
     1.0000   1.0000   1.0000   1.0000   1.0000   1.0000   1.0000   1.0000
     1.0000   1.0000   1.0000   1.0000   1.0000   1.0000   1.0000   1.0000
     1.0000   1.0000   1.0000   1.0000   1.0000   1.0000   1.0000   1.0000
     1.0000   1.0000   1.0000   1.0000   1.0000   1.0000   1.0000   1.0000
     1.0000   1.0000   1.0000   1.0000   1.0000   1.0000   1.0000   1.0000
     1.0000   1.0000   1.0000   1.0000   1.0000   1.0000   0.0000   0.0000
     0.0000   0.0000   0.0000   0.0000   0.0000   0.0000   0.0000   0.0000
     0.0000   0.0000   0.0000   0.0000   0.0000   0.0000   0.0000   0.0000
     0.0000   0.0000   0.0000   0.0000   0.0000   0.0000   0.0000   0.0000

          k =-0.3333 0.0000 0.3333 ( 24236 PWs)   bands (ev):

    -8.0816  -7.4830  -7.1108  -6.5526  -5.9770  -5.6858  -5.3702  -5.0328
    -4.9394  -4.7834  -4.5203  -4.2895  -4.2296  -4.0562  -3.5992  -3.3359
    -2.7717  -2.4054  -2.3655  -2.3062  -2.1965  -2.1636  -2.1133  -1.6586
    -1.6485  -1.3186  -1.1248  -0.9788  -0.6128   0.0089   0.0781   0.1206
     0.2516   0.4763   0.8692   1.0606   1.2142   1.2327   1.2425   1.3987
     1.4711   1.5767   1.8488   1.9112   2.1310   2.5753   2.6815   2.8571
     2.9431   3.5148   3.6575   3.7047   3.7830   3.8827   4.0244   4.1087
     4.1779   4.3899   4.6326   4.8125   4.9657   5.0254   5.1858   5.2427
     5.4047   5.5602   5.6470   5.6726   5.7877   6.0375   6.0784   6.1245
     6.1668   6.2137   6.2586   6.4414   6.4777   6.6075   6.6393   6.8248
     6.8904   6.9542   7.0020   7.0902   7.2176   7.3959   7.5032   7.6787
     7.8494   7.9056   7.9643   8.0671   8.1724   8.2130   8.2431   8.2786
     8.3667   8.4301   8.5254   8.5894   8.7126   8.7464   8.8828   8.9647
     9.0705   9.1375   9.2273   9.3142   9.4515   9.4889   9.5037   9.6487
     9.7261   9.7371   9.9231  10.0240  10.0667  10.1026  10.4864  10.8749
    10.9776  11.1644  11.4946  11.7585  12.2578  13.8421  14.8116  15.1090
    18.0354  18.2085  18.2513  18.3042  18.3753  18.7846  18.9255  19.1041
    19.1496  19.2768  19.3634  19.4781  19.7038  19.8489  19.8792  20.0268
    20.2332  20.3564  20.4192  20.5058  20.5638  20.5785  20.6341  20.6753

     occupation numbers 
     1.0000   1.0000   1.0000   1.0000   1.0000   1.0000   1.0000   1.0000
     1.0000   1.0000   1.0000   1.0000   1.0000   1.0000   1.0000   1.0000
     1.0000   1.0000   1.0000   1.0000   1.0000   1.0000   1.0000   1.0000
     1.0000   1.0000   1.0000   1.0000   1.0000   1.0000   1.0000   1.0000
     1.0000   1.0000   1.0000   1.0000   1.0000   1.0000   1.0000   1.0000
     1.0000   1.0000   1.0000   1.0000   1.0000   1.0000   1.0000   1.0000
     1.0000   1.0000   1.0000   1.0000   1.0000   1.0000   1.0000   1.0000
     1.0000   1.0000   1.0000   1.0000   1.0000   1.0000   1.0000   1.0000
     1.0000   1.0000   1.0000   1.0000   1.0000   1.0000   1.0000   1.0000
     1.0000   1.0000   1.0000   1.0000   1.0000   1.0000   1.0000   1.0000
     1.0000   1.0000   1.0000   1.0000   1.0000   1.0000   1.0000   1.0000
     1.0000   1.0000   1.0000   1.0000   1.0000   1.0000   1.0000   1.0000
     1.0000   1.0000   1.0000   1.0000   1.0000   1.0000   1.0000   1.0000
     1.0000   1.0000   1.0000   1.0000   1.0000   1.0000   1.0000   1.0000
     1.0000   1.0000   1.0000   1.0000   1.0000   1.0000   1.0000   1.0000
     1.0000   1.0000   1.0000   1.0000   1.0000   1.0000   1.0000   0.5000
     0.0000   0.0000   0.0000   0.0000   0.0000   0.0000   0.0000   0.0000
     0.0000   0.0000   0.0000   0.0000   0.0000   0.0000   0.0000   0.0000
     0.0000   0.0000   0.0000   0.0000   0.0000   0.0000   0.0000   0.0000

          k = 0.3333-0.3333 0.3333 ( 24303 PWs)   bands (ev):

    -7.8627  -7.3300  -6.9924  -6.8299  -6.4652  -6.2348  -5.9908  -5.4901
    -4.4618  -4.0439  -3.9371  -3.7202  -3.4277  -3.3583  -3.3178  -3.2413
    -3.0824  -2.8890  -2.6923  -2.4320  -2.0689  -1.8927  -1.8556  -1.7195
    -1.4858  -1.4687  -1.4457  -1.3662  -1.3625  -1.2573  -1.1954  -0.0549
     0.7586   0.8531   0.9513   0.9975   1.0652   1.4228   1.7519   1.7757
     1.8519   1.9472   2.0320   2.2308   2.5842   2.6120   2.6809   2.6999
     2.7100   2.7758   2.9189   3.1719   3.5078   4.0037   4.2397   4.2948
     4.8317   4.8341   4.8564   5.0061   5.0311   5.0555   5.1867   5.2444
     5.2695   5.4276   5.4336   5.5028   5.6847   5.7758   5.8144   6.4751
     6.7262   6.7712   6.9215   6.9218   6.9674   7.0467   7.0645   7.0859
     7.1571   7.1601   7.2157   7.2552   7.2567   7.3210   7.3375   7.3515
     7.3639   7.4670   7.7231   7.7381   7.8328   7.9157   7.9431   7.9530
     8.1318   8.1498   8.2537   8.2825   8.3405   8.3987   8.4064   8.4707
     8.6979   8.7154   8.9528   8.9956   9.1136   9.5353   9.5728   9.7050
     9.8580  10.4054  10.5050  10.5085  10.5567  10.9267  10.9423  11.2038
    11.2263  11.2740  11.4710  11.7162  11.7414  13.8646  14.8832  15.1956
    18.0960  18.2637  18.3397  18.5335  18.6510  18.7246  19.1991  19.3851
    19.4435  19.5059  19.5316  19.5503  19.6036  19.6286  19.6603  19.7137
    19.7458  19.7931  19.9073  19.9248  19.9763  19.9881  20.0442  20.1500

     occupation numbers 
     1.0000   1.0000   1.0000   1.0000   1.0000   1.0000   1.0000   1.0000
     1.0000   1.0000   1.0000   1.0000   1.0000   1.0000   1.0000   1.0000
     1.0000   1.0000   1.0000   1.0000   1.0000   1.0000   1.0000   1.0000
     1.0000   1.0000   1.0000   1.0000   1.0000   1.0000   1.0000   1.0000
     1.0000   1.0000   1.0000   1.0000   1.0000   1.0000   1.0000   1.0000
     1.0000   1.0000   1.0000   1.0000   1.0000   1.0000   1.0000   1.0000
     1.0000   1.0000   1.0000   1.0000   1.0000   1.0000   1.0000   1.0000
     1.0000   1.0000   1.0000   1.0000   1.0000   1.0000   1.0000   1.0000
     1.0000   1.0000   1.0000   1.0000   1.0000   1.0000   1.0000   1.0000
     1.0000   1.0000   1.0000   1.0000   1.0000   1.0000   1.0000   1.0000
     1.0000   1.0000   1.0000   1.0000   1.0000   1.0000   1.0000   1.0000
     1.0000   1.0000   1.0000   1.0000   1.0000   1.0000   1.0000   1.0000
     1.0000   1.0000   1.0000   1.0000   1.0000   1.0000   1.0000   1.0000
     1.0000   1.0000   1.0000   1.0000   1.0000   1.0000   1.0000   1.0000
     1.0000   1.0000   1.0000   1.0000   1.0000   1.0000   1.0000   1.0000
     1.0000   1.0000   1.0000   1.0000   1.0000   1.0000   1.0000   0.0000
     0.0000   0.0000   0.0000   0.0000   0.0000   0.0000   0.0000   0.0000
     0.0000   0.0000   0.0000   0.0000   0.0000   0.0000   0.0000   0.0000
     0.0000   0.0000   0.0000   0.0000   0.0000   0.0000   0.0000   0.0000

     the spin up/dw Fermi energies are    15.1110   15.1109 ev

!    total energy              =    -724.77281816 Ry
     Harris-Foulkes estimate   =    -724.77281777 Ry
     estimated scf accuracy    <       0.00000048 Ry

     The total energy is the sum of the following terms:

     one-electron contribution =     232.25138967 Ry
     hartree contribution      =      69.42109999 Ry
     xc contribution           =    -226.36746291 Ry
     ewald contribution        =    -800.07777194 Ry
     smearing contrib. (-TS)   =      -0.00007296 Ry

     total magnetization       =    -0.00 Bohr mag/cell
     absolute magnetization    =     0.00 Bohr mag/cell

     convergence has been achieved in   9 iterations

     Writing output data file di.save
 
     init_run     :      1.45s CPU      1.84s WALL (       1 calls)
     electrons    :     24.66s CPU     25.06s WALL (       1 calls)

     Called by init_run:
     wfcinit      :      0.79s CPU      0.87s WALL (       1 calls)
     wfcinit:atom :      0.00s CPU      0.01s WALL (       2 calls)
     wfcinit:wfcr :      0.75s CPU      0.81s WALL (       2 calls)
     potinit      :      0.10s CPU      0.12s WALL (       1 calls)

     Called by electrons:
     c_bands      :     23.06s CPU     23.43s WALL (       9 calls)
     sum_band     :      1.08s CPU      1.10s WALL (       9 calls)
     v_of_rho     :      0.36s CPU      0.37s WALL (      10 calls)
     v_h          :      0.01s CPU      0.01s WALL (      10 calls)
     v_xc         :      0.35s CPU      0.36s WALL (      10 calls)
     mix_rho      :      0.06s CPU      0.06s WALL (       9 calls)

     Called by c_bands:
     init_us_2    :      0.17s CPU      0.17s WALL (      38 calls)
     cegterg      :     20.55s CPU     20.89s WALL (      18 calls)

     Called by sum_band:

     Called by *egterg:
     h_psi        :      8.37s CPU      8.49s WALL (     123 calls)
     g_psi        :      0.05s CPU      0.05s WALL (     103 calls)
     cdiaghg      :      8.66s CPU      8.70s WALL (     121 calls)
     cegterg:over :      1.60s CPU      1.61s WALL (     103 calls)
     cegterg:upda :      1.22s CPU      1.23s WALL (     103 calls)
     cegterg:last :      0.45s CPU      0.46s WALL (      18 calls)

     Called by h_psi:
     h_psi:pot    :      8.28s CPU      8.39s WALL (     123 calls)
     h_psi:calbec :      1.80s CPU      1.82s WALL (     123 calls)
     vloc_psi     :      4.58s CPU      4.65s WALL (     123 calls)
     add_vuspsi   :      1.90s CPU      1.92s WALL (     123 calls)

     General routines
     calbec       :      1.80s CPU      1.82s WALL (     123 calls)
     fft          :      0.11s CPU      0.31s WALL (     207 calls)
     fftw         :      4.90s CPU      4.88s WALL (   18348 calls)
 
     Parallel routines
     fft_scatter  :      1.46s CPU      1.43s WALL (   18555 calls)
 
     PWSCF        :    28.93s CPU        32.35s WALL

 
   This run was terminated on:  10:27:16  12May2020            

=------------------------------------------------------------------------------=
   JOB DONE.
=------------------------------------------------------------------------------=
