
     Program PWSCF v.6.1 (svn rev. 13369) starts on 12May2020 at 10:29:30 

     This program is part of the open-source Quantum ESPRESSO suite
     for quantum simulation of materials; please cite
         "P. Giannozzi et al., J. Phys.:Condens. Matter 21 395502 (2009);
          URL http://www.quantum-espresso.org", 
     in publications or presentations arising from this work. More details at
     http://www.quantum-espresso.org/quote

     Parallel version (MPI), running on    96 processors
     K-points division:     npool     =       6
     R & G space division:  proc/nbgrp/npool/nimage =      16
     Reading input from scf.in
Warning: card &IONS ignored
Warning: card / ignored

     Current dimensions of program PWSCF are:
     Max number of different atomic species (ntypx) = 10
     Max number of k-points (npk) =  40000
     Max angular momentum in pseudopotentials (lmaxx) =  3

     Subspace diagonalization in iterative solution of the eigenvalue problem:
     a serial algorithm will be used

 
     Parallelization info
     --------------------
     sticks:   dense  smooth     PW     G-vecs:    dense   smooth      PW
     Min         252     252     67                12125    12125    1669
     Max         254     254     68                12129    12129    1672
     Sum        4049    4049   1085               194039   194039   26745
 


     bravais-lattice index     =            1
     lattice parameter (alat)  =      13.4862  a.u.
     unit-cell volume          =    2452.8358 (a.u.)^3
     number of atoms/cell      =           63
     number of atomic types    =            2
     number of electrons       =       254.00
     number of Kohn-Sham states=          152
     kinetic-energy cutoff     =      70.0000  Ry
     charge density cutoff     =     280.0000  Ry
     convergence threshold     =      1.0E-06
     mixing beta               =       0.5000
     number of iterations used =            8  plain     mixing
     Exchange-correlation      = PBE ( 1  4  3  4 0 0)

     celldm(1)=  13.486197  celldm(2)=   0.000000  celldm(3)=   0.000000
     celldm(4)=   0.000000  celldm(5)=   0.000000  celldm(6)=   0.000000

     crystal axes: (cart. coord. in units of alat)
               a(1) = (   1.000000   0.000000   0.000000 )  
               a(2) = (   0.000000   1.000000   0.000000 )  
               a(3) = (   0.000000   0.000000   1.000000 )  

     reciprocal axes: (cart. coord. in units 2 pi/alat)
               b(1) = (  1.000000  0.000000  0.000000 )  
               b(2) = (  0.000000  1.000000  0.000000 )  
               b(3) = (  0.000000  0.000000  1.000000 )  


     PseudoPot. # 1 for C  read from file:
     /home/tjsmart/Pseudo/C_ONCV_PBE-1.0.upf
     MD5 check sum: 72b63e32b2fd29504de26a4901699f60
     Pseudo is Norm-conserving, Zval =  4.0
     Generated using ONCVPSP code by D. R. Hamann
     Using radial grid of 1248 points,  4 beta functions with: 
                l(1) =   0
                l(2) =   0
                l(3) =   1
                l(4) =   1

     PseudoPot. # 2 for N  read from file:
     /home/tjsmart/Pseudo/N_ONCV_PBE-1.0.upf
     MD5 check sum: 09890da6b2972017450f7114a6086fad
     Pseudo is Norm-conserving, Zval =  5.0
     Generated using ONCVPSP code by D. R. Hamann
     Using radial grid of 1058 points,  4 beta functions with: 
                l(1) =   0
                l(2) =   0
                l(3) =   1
                l(4) =   1

     atomic species   valence    mass     pseudopotential
        C              4.00    12.01110     C ( 1.00)
        N              5.00    14.00670     N ( 1.00)

     Starting magnetic structure 
     atomic species   magnetization
        C            0.500
        N            0.500

      6 Sym. Ops. (no inversion) found


                                    s                        frac. trans.

      isym =  1     identity                                     

 cryst.   s( 1) = (     1          0          0      )
                  (     0          1          0      )
                  (     0          0          1      )

 cart.    s( 1) = (  1.0000000  0.0000000  0.0000000 )
                  (  0.0000000  1.0000000  0.0000000 )
                  (  0.0000000  0.0000000  1.0000000 )


      isym =  2     120 deg rotation - cart. axis [-1,-1,-1]     

 cryst.   s( 2) = (     0          0          1      )
                  (     1          0          0      )
                  (     0          1          0      )

 cart.    s( 2) = (  0.0000000  1.0000000  0.0000000 )
                  (  0.0000000  0.0000000  1.0000000 )
                  (  1.0000000  0.0000000  0.0000000 )


      isym =  3     120 deg rotation - cart. axis [1,1,1]        

 cryst.   s( 3) = (     0          1          0      )
                  (     0          0          1      )
                  (     1          0          0      )

 cart.    s( 3) = (  0.0000000  0.0000000  1.0000000 )
                  (  1.0000000  0.0000000  0.0000000 )
                  (  0.0000000  1.0000000  0.0000000 )


      isym =  4     inv. 180 deg rotation - cart. axis [1,-1,0]  

 cryst.   s( 4) = (     0          1          0      )
                  (     1          0          0      )
                  (     0          0          1      )

 cart.    s( 4) = (  0.0000000  1.0000000  0.0000000 )
                  (  1.0000000  0.0000000  0.0000000 )
                  (  0.0000000  0.0000000  1.0000000 )


      isym =  5     inv. 180 deg rotation - cart. axis [-1,0,1]  

 cryst.   s( 5) = (     0          0          1      )
                  (     0          1          0      )
                  (     1          0          0      )

 cart.    s( 5) = (  0.0000000  0.0000000  1.0000000 )
                  (  0.0000000  1.0000000  0.0000000 )
                  (  1.0000000  0.0000000  0.0000000 )


      isym =  6     inv. 180 deg rotation - cart. axis [0,1,-1]  

 cryst.   s( 6) = (     1          0          0      )
                  (     0          0          1      )
                  (     0          1          0      )

 cart.    s( 6) = (  1.0000000  0.0000000  0.0000000 )
                  (  0.0000000  0.0000000  1.0000000 )
                  (  0.0000000  1.0000000  0.0000000 )


     point group C_3v (3m)  
     there are  3 classes
     the character table:

       E     2C3   3s_v 
A_1    1.00  1.00  1.00
A_2    1.00  1.00 -1.00
E      2.00 -1.00  0.00

     the symmetry operations in each class and the name of the first element:

     E        1
          identity                                               
     2C3      2    3
          120 deg rotation - cart. axis [-1,-1,-1]               
     3s_v     4    5    6
          inv. 180 deg rotation - cart. axis [1,-1,0]            

   Cartesian axes

     site n.     atom                  positions (alat units)
         1           C   tau(   1) = (   0.3757371   0.3757371   0.8736885  )
         2           C   tau(   2) = (   0.5000557   0.0001927   0.0001927  )
         3           C   tau(   3) = (   0.5000538  -0.0000756   0.5000538  )
         4           C   tau(   4) = (   0.0001927   0.5000557   0.0001927  )
         5           C   tau(   5) = (  -0.0000756   0.5000538   0.5000538  )
         6           C   tau(   6) = (  -0.0001117  -0.0001117  -0.0001117  )
         7           C   tau(   7) = (   0.0001927   0.0001927   0.5000557  )
         8           C   tau(   8) = (   0.2502251   0.2502251  -0.0012242  )
         9           C   tau(   9) = (   0.2506407   0.2506407   0.4947864  )
        10           C   tau(  10) = (   0.2504037   0.7490289   0.0010006  )
        11           C   tau(  11) = (   0.2526129   0.7477749   0.5016415  )
        12           C   tau(  12) = (   0.7490289   0.2504037   0.0010006  )
        13           C   tau(  13) = (   0.7477749   0.2526129   0.5016415  )
        14           C   tau(  14) = (   0.7496490   0.7496490  -0.0002162  )
        15           C   tau(  15) = (   0.5000538   0.5000538  -0.0000756  )
        16           C   tau(  16) = (   0.7491278   0.7491278   0.4987746  )
        17           C   tau(  17) = (   0.5016415   0.2526129   0.7477749  )
        18           C   tau(  18) = (   0.5016415   0.7477749   0.2526129  )
        19           C   tau(  19) = (   0.4987746   0.7491278   0.7491278  )
        20           C   tau(  20) = (  -0.0012242   0.2502251   0.2502251  )
        21           C   tau(  21) = (   0.0010006   0.2504037   0.7490289  )
        22           C   tau(  22) = (   0.0010006   0.7490289   0.2504037  )
        23           C   tau(  23) = (  -0.0002162   0.7496490   0.7496490  )
        24           C   tau(  24) = (   0.2506407   0.4947864   0.2506407  )
        25           C   tau(  25) = (   0.2526129   0.5016415   0.7477749  )
        26           C   tau(  26) = (   0.2502251  -0.0012242   0.2502251  )
        27           C   tau(  27) = (   0.2504037   0.0010006   0.7490289  )
        28           C   tau(  28) = (   0.7477749   0.5016415   0.2526129  )
        29           C   tau(  29) = (   0.7491278   0.4987746   0.7491278  )
        30           C   tau(  30) = (   0.4947864   0.2506407   0.2506407  )
        31           C   tau(  31) = (   0.7490289   0.0010006   0.2504037  )
        32           C   tau(  32) = (   0.6246711   0.8744331   0.6246711  )
        33           C   tau(  33) = (   0.6347302   0.3673751   0.6347302  )
        34           C   tau(  34) = (   0.3758925   0.8762022   0.8762022  )
        35           C   tau(  35) = (   0.3757371   0.8736885   0.3757371  )
        36           C   tau(  36) = (   0.8762022   0.3758925   0.8762022  )
        37           C   tau(  37) = (   0.8736885   0.3757371   0.3757371  )
        38           C   tau(  38) = (   0.8747078   0.8747078   0.8747078  )
        39           C   tau(  39) = (   0.8762022   0.8762022   0.3758925  )
        40           C   tau(  40) = (   0.1253835   0.1253835   0.8742470  )
        41           C   tau(  41) = (   0.1238572   0.1238572   0.3748662  )
        42           C   tau(  42) = (   0.1243584   0.6245500   0.8758481  )
        43           C   tau(  43) = (   0.1270930   0.6229314   0.3763101  )
        44           C   tau(  44) = (   0.6245500   0.1243584   0.8758481  )
        45           C   tau(  45) = (   0.6229314   0.1270930   0.3763101  )
        46           C   tau(  46) = (   0.6245500   0.8758481   0.1243584  )
        47           C   tau(  47) = (   0.6246711   0.6246711   0.8744331  )
        48           C   tau(  48) = (   0.3748662   0.1238572   0.1238572  )
        49           C   tau(  49) = (   0.3763101   0.1270930   0.6229314  )
        50           C   tau(  50) = (   0.3763101   0.6229314   0.1270930  )
        51           C   tau(  51) = (   0.3673751   0.6347302   0.6347302  )
        52           C   tau(  52) = (   0.8742470   0.1253835   0.1253835  )
        53           C   tau(  53) = (   0.8758481   0.1243584   0.6245500  )
        54           C   tau(  54) = (   0.8758481   0.6245500   0.1243584  )
        55           C   tau(  55) = (   0.8744331   0.6246711   0.6246711  )
        56           C   tau(  56) = (   0.1238572   0.3748662   0.1238572  )
        57           C   tau(  57) = (   0.1270930   0.3763101   0.6229314  )
        58           C   tau(  58) = (   0.1253835   0.8742470   0.1253835  )
        59           C   tau(  59) = (   0.1243584   0.8758481   0.6245500  )
        60           C   tau(  60) = (   0.6229314   0.3763101   0.1270930  )
        61           C   tau(  61) = (   0.6347302   0.6347302   0.3673751  )
        62           C   tau(  62) = (   0.7496490  -0.0002162   0.7496490  )
        63           N   tau(  63) = (   0.3647533   0.3647533   0.3647533  )

   Crystallographic axes

     site n.     atom                  positions (cryst. coord.)
         1           C   tau(   1) = (  0.3757371  0.3757371  0.8736885  )
         2           C   tau(   2) = (  0.5000557  0.0001927  0.0001927  )
         3           C   tau(   3) = (  0.5000538 -0.0000756  0.5000538  )
         4           C   tau(   4) = (  0.0001927  0.5000557  0.0001927  )
         5           C   tau(   5) = ( -0.0000756  0.5000538  0.5000538  )
         6           C   tau(   6) = ( -0.0001117 -0.0001117 -0.0001117  )
         7           C   tau(   7) = (  0.0001927  0.0001927  0.5000557  )
         8           C   tau(   8) = (  0.2502251  0.2502251 -0.0012242  )
         9           C   tau(   9) = (  0.2506407  0.2506407  0.4947864  )
        10           C   tau(  10) = (  0.2504037  0.7490289  0.0010006  )
        11           C   tau(  11) = (  0.2526129  0.7477749  0.5016415  )
        12           C   tau(  12) = (  0.7490289  0.2504037  0.0010006  )
        13           C   tau(  13) = (  0.7477749  0.2526129  0.5016415  )
        14           C   tau(  14) = (  0.7496490  0.7496490 -0.0002162  )
        15           C   tau(  15) = (  0.5000538  0.5000538 -0.0000756  )
        16           C   tau(  16) = (  0.7491278  0.7491278  0.4987746  )
        17           C   tau(  17) = (  0.5016415  0.2526129  0.7477749  )
        18           C   tau(  18) = (  0.5016415  0.7477749  0.2526129  )
        19           C   tau(  19) = (  0.4987746  0.7491278  0.7491278  )
        20           C   tau(  20) = ( -0.0012242  0.2502251  0.2502251  )
        21           C   tau(  21) = (  0.0010006  0.2504037  0.7490289  )
        22           C   tau(  22) = (  0.0010006  0.7490289  0.2504037  )
        23           C   tau(  23) = ( -0.0002162  0.7496490  0.7496490  )
        24           C   tau(  24) = (  0.2506407  0.4947864  0.2506407  )
        25           C   tau(  25) = (  0.2526129  0.5016415  0.7477749  )
        26           C   tau(  26) = (  0.2502251 -0.0012242  0.2502251  )
        27           C   tau(  27) = (  0.2504037  0.0010006  0.7490289  )
        28           C   tau(  28) = (  0.7477749  0.5016415  0.2526129  )
        29           C   tau(  29) = (  0.7491278  0.4987746  0.7491278  )
        30           C   tau(  30) = (  0.4947864  0.2506407  0.2506407  )
        31           C   tau(  31) = (  0.7490289  0.0010006  0.2504037  )
        32           C   tau(  32) = (  0.6246711  0.8744331  0.6246711  )
        33           C   tau(  33) = (  0.6347302  0.3673751  0.6347302  )
        34           C   tau(  34) = (  0.3758925  0.8762022  0.8762022  )
        35           C   tau(  35) = (  0.3757371  0.8736885  0.3757371  )
        36           C   tau(  36) = (  0.8762022  0.3758925  0.8762022  )
        37           C   tau(  37) = (  0.8736885  0.3757371  0.3757371  )
        38           C   tau(  38) = (  0.8747078  0.8747078  0.8747078  )
        39           C   tau(  39) = (  0.8762022  0.8762022  0.3758925  )
        40           C   tau(  40) = (  0.1253835  0.1253835  0.8742470  )
        41           C   tau(  41) = (  0.1238572  0.1238572  0.3748662  )
        42           C   tau(  42) = (  0.1243584  0.6245500  0.8758481  )
        43           C   tau(  43) = (  0.1270930  0.6229314  0.3763101  )
        44           C   tau(  44) = (  0.6245500  0.1243584  0.8758481  )
        45           C   tau(  45) = (  0.6229314  0.1270930  0.3763101  )
        46           C   tau(  46) = (  0.6245500  0.8758481  0.1243584  )
        47           C   tau(  47) = (  0.6246711  0.6246711  0.8744331  )
        48           C   tau(  48) = (  0.3748662  0.1238572  0.1238572  )
        49           C   tau(  49) = (  0.3763101  0.1270930  0.6229314  )
        50           C   tau(  50) = (  0.3763101  0.6229314  0.1270930  )
        51           C   tau(  51) = (  0.3673751  0.6347302  0.6347302  )
        52           C   tau(  52) = (  0.8742470  0.1253835  0.1253835  )
        53           C   tau(  53) = (  0.8758481  0.1243584  0.6245500  )
        54           C   tau(  54) = (  0.8758481  0.6245500  0.1243584  )
        55           C   tau(  55) = (  0.8744331  0.6246711  0.6246711  )
        56           C   tau(  56) = (  0.1238572  0.3748662  0.1238572  )
        57           C   tau(  57) = (  0.1270930  0.3763101  0.6229314  )
        58           C   tau(  58) = (  0.1253835  0.8742470  0.1253835  )
        59           C   tau(  59) = (  0.1243584  0.8758481  0.6245500  )
        60           C   tau(  60) = (  0.6229314  0.3763101  0.1270930  )
        61           C   tau(  61) = (  0.6347302  0.6347302  0.3673751  )
        62           C   tau(  62) = (  0.7496490 -0.0002162  0.7496490  )
        63           N   tau(  63) = (  0.3647533  0.3647533  0.3647533  )

     number of k points=     6
                       cart. coord. in units 2pi/alat
        k(    1) = (   0.0000000   0.0000000   0.0000000), wk =   0.0370370
        k(    2) = (   0.0000000   0.0000000   0.3333333), wk =   0.2222222
        k(    3) = (   0.0000000   0.3333333   0.3333333), wk =   0.2222222
        k(    4) = (   0.3333333   0.3333333   0.3333333), wk =   0.0740741
        k(    5) = (  -0.3333333   0.0000000   0.3333333), wk =   0.2222222
        k(    6) = (   0.3333333  -0.3333333   0.3333333), wk =   0.2222222

                       cryst. coord.
        k(    1) = (   0.0000000   0.0000000   0.0000000), wk =   0.0370370
        k(    2) = (   0.0000000   0.0000000   0.3333333), wk =   0.2222222
        k(    3) = (   0.0000000   0.3333333   0.3333333), wk =   0.2222222
        k(    4) = (   0.3333333   0.3333333   0.3333333), wk =   0.0740741
        k(    5) = (  -0.3333333   0.0000000   0.3333333), wk =   0.2222222
        k(    6) = (   0.3333333  -0.3333333   0.3333333), wk =   0.2222222

     Dense  grid:   194039 G-vectors     FFT dimensions: (  72,  72,  72)

     Occupations read from input 

      Spin-up

        1.0000   1.0000   1.0000   1.0000   1.0000   1.0000   1.0000   1.0000
        1.0000   1.0000   1.0000   1.0000   1.0000   1.0000   1.0000   1.0000
        1.0000   1.0000   1.0000   1.0000   1.0000   1.0000   1.0000   1.0000
        1.0000   1.0000   1.0000   1.0000   1.0000   1.0000   1.0000   1.0000
        1.0000   1.0000   1.0000   1.0000   1.0000   1.0000   1.0000   1.0000
        1.0000   1.0000   1.0000   1.0000   1.0000   1.0000   1.0000   1.0000
        1.0000   1.0000   1.0000   1.0000   1.0000   1.0000   1.0000   1.0000
        1.0000   1.0000   1.0000   1.0000   1.0000   1.0000   1.0000   1.0000
        1.0000   1.0000   1.0000   1.0000   1.0000   1.0000   1.0000   1.0000
        1.0000   1.0000   1.0000   1.0000   1.0000   1.0000   1.0000   1.0000
        1.0000   1.0000   1.0000   1.0000   1.0000   1.0000   1.0000   1.0000
        1.0000   1.0000   1.0000   1.0000   1.0000   1.0000   1.0000   1.0000
        1.0000   1.0000   1.0000   1.0000   1.0000   1.0000   1.0000   1.0000
        1.0000   1.0000   1.0000   1.0000   1.0000   1.0000   1.0000   1.0000
        1.0000   1.0000   1.0000   1.0000   1.0000   1.0000   1.0000   1.0000
        1.0000   1.0000   1.0000   1.0000   1.0000   1.0000   1.0000   1.0000
        0.0000   0.0000   0.0000   0.0000   0.0000   0.0000   0.0000   0.0000
        0.0000   0.0000   0.0000   0.0000   0.0000   0.0000   0.0000   0.0000
        0.0000   0.0000   0.0000   0.0000   0.0000   0.0000   0.0000   0.0000

      Spin-down

        1.0000   1.0000   1.0000   1.0000   1.0000   1.0000   1.0000   1.0000
        1.0000   1.0000   1.0000   1.0000   1.0000   1.0000   1.0000   1.0000
        1.0000   1.0000   1.0000   1.0000   1.0000   1.0000   1.0000   1.0000
        1.0000   1.0000   1.0000   1.0000   1.0000   1.0000   1.0000   1.0000
        1.0000   1.0000   1.0000   1.0000   1.0000   1.0000   1.0000   1.0000
        1.0000   1.0000   1.0000   1.0000   1.0000   1.0000   1.0000   1.0000
        1.0000   1.0000   1.0000   1.0000   1.0000   1.0000   1.0000   1.0000
        1.0000   1.0000   1.0000   1.0000   1.0000   1.0000   1.0000   1.0000
        1.0000   1.0000   1.0000   1.0000   1.0000   1.0000   1.0000   1.0000
        1.0000   1.0000   1.0000   1.0000   1.0000   1.0000   1.0000   1.0000
        1.0000   1.0000   1.0000   1.0000   1.0000   1.0000   1.0000   1.0000
        1.0000   1.0000   1.0000   1.0000   1.0000   1.0000   1.0000   1.0000
        1.0000   1.0000   1.0000   1.0000   1.0000   1.0000   1.0000   1.0000
        1.0000   1.0000   1.0000   1.0000   1.0000   1.0000   1.0000   1.0000
        1.0000   1.0000   1.0000   1.0000   1.0000   1.0000   1.0000   1.0000
        1.0000   1.0000   1.0000   1.0000   1.0000   0.0000   1.0000   0.0000
        0.0000   0.0000   0.0000   0.0000   0.0000   0.0000   0.0000   0.0000
        0.0000   0.0000   0.0000   0.0000   0.0000   0.0000   0.0000   0.0000
        0.0000   0.0000   0.0000   0.0000   0.0000   0.0000   0.0000   0.0000

     Estimated max dynamical RAM per process >      60.23MB

     Estimated total allocated dynamical RAM >    5782.56MB
     Generating pointlists ...
     new r_m :   0.0855 (alat units)  1.1529 (a.u.) for type    1
     new r_m :   0.0855 (alat units)  1.1529 (a.u.) for type    2

     Initial potential from superposition of free atoms

     starting charge  252.99722, renormalised to  254.00000
     Starting wfc are  252 randomized atomic wfcs

     total cpu time spent up to now is        3.8 secs

     per-process dynamical memory:    59.5 Mb

     Self-consistent Calculation

     iteration #  1     ecut=    70.00 Ry     beta=0.50
     Davidson diagonalization with overlap
     ethr =  1.00E-02,  avg # of iterations =  3.0

     total cpu time spent up to now is        6.1 secs

     total energy              =    -722.44597638 Ry
     Harris-Foulkes estimate   =    -717.55068936 Ry
     estimated scf accuracy    <       6.66342651 Ry

     total magnetization       =     2.00 Bohr mag/cell
     absolute magnetization    =     3.67 Bohr mag/cell

     iteration #  2     ecut=    70.00 Ry     beta=0.50
     Davidson diagonalization with overlap
     ethr =  2.62E-03,  avg # of iterations =  2.0

     total cpu time spent up to now is        7.5 secs

     total energy              =    -724.25023698 Ry
     Harris-Foulkes estimate   =    -722.83437398 Ry
     estimated scf accuracy    <       1.47615358 Ry

     total magnetization       =     2.00 Bohr mag/cell
     absolute magnetization    =     2.51 Bohr mag/cell

     iteration #  3     ecut=    70.00 Ry     beta=0.50
     Davidson diagonalization with overlap
     ethr =  5.81E-04,  avg # of iterations =  7.1

     total cpu time spent up to now is       10.9 secs

     total energy              =    -724.52738540 Ry
     Harris-Foulkes estimate   =    -724.57060478 Ry
     estimated scf accuracy    <       0.73038686 Ry

     total magnetization       =     2.00 Bohr mag/cell
     absolute magnetization    =     2.14 Bohr mag/cell

     iteration #  4     ecut=    70.00 Ry     beta=0.50
     Davidson diagonalization with overlap
     ethr =  2.88E-04,  avg # of iterations =  6.1

     total cpu time spent up to now is       13.7 secs

     total energy              =    -724.67685020 Ry
     Harris-Foulkes estimate   =    -724.66588880 Ry
     estimated scf accuracy    <       0.02918096 Ry

     total magnetization       =     2.00 Bohr mag/cell
     absolute magnetization    =     2.14 Bohr mag/cell

     iteration #  5     ecut=    70.00 Ry     beta=0.50
     Davidson diagonalization with overlap
     ethr =  1.15E-05,  avg # of iterations = 10.5

     total cpu time spent up to now is       18.9 secs

     total energy              =    -724.68534282 Ry
     Harris-Foulkes estimate   =    -724.68493188 Ry
     estimated scf accuracy    <       0.00623041 Ry

     total magnetization       =     2.00 Bohr mag/cell
     absolute magnetization    =     2.15 Bohr mag/cell

     iteration #  6     ecut=    70.00 Ry     beta=0.50
     Davidson diagonalization with overlap
     ethr =  2.45E-06,  avg # of iterations =  8.9

     total cpu time spent up to now is       23.9 secs

     total energy              =    -724.68659312 Ry
     Harris-Foulkes estimate   =    -724.68667026 Ry
     estimated scf accuracy    <       0.00065072 Ry

     total magnetization       =     2.00 Bohr mag/cell
     absolute magnetization    =     2.17 Bohr mag/cell

     iteration #  7     ecut=    70.00 Ry     beta=0.50
     Davidson diagonalization with overlap
     ethr =  2.56E-07,  avg # of iterations =  3.3

     total cpu time spent up to now is       25.9 secs

     total energy              =    -724.68680246 Ry
     Harris-Foulkes estimate   =    -724.68677589 Ry
     estimated scf accuracy    <       0.00008843 Ry

     total magnetization       =     2.00 Bohr mag/cell
     absolute magnetization    =     2.18 Bohr mag/cell

     iteration #  8     ecut=    70.00 Ry     beta=0.50
     Davidson diagonalization with overlap
     ethr =  3.48E-08,  avg # of iterations =  3.4

     total cpu time spent up to now is       28.1 secs

     total energy              =    -724.68684849 Ry
     Harris-Foulkes estimate   =    -724.68683065 Ry
     estimated scf accuracy    <       0.00001801 Ry

     total magnetization       =     2.00 Bohr mag/cell
     absolute magnetization    =     2.18 Bohr mag/cell

     iteration #  9     ecut=    70.00 Ry     beta=0.50
     Davidson diagonalization with overlap
     ethr =  7.09E-09,  avg # of iterations =  3.9

     total cpu time spent up to now is       30.2 secs

     total energy              =    -724.68686175 Ry
     Harris-Foulkes estimate   =    -724.68685255 Ry
     estimated scf accuracy    <       0.00000514 Ry

     total magnetization       =     2.00 Bohr mag/cell
     absolute magnetization    =     2.19 Bohr mag/cell

     iteration # 10     ecut=    70.00 Ry     beta=0.50
     Davidson diagonalization with overlap
     ethr =  2.02E-09,  avg # of iterations =  4.8
 
     Magnetic moment per site:
     atom:    1    charge:    1.8269    magn:    0.0068    constr:    0.0000
     atom:    2    charge:    1.8436    magn:    0.0080    constr:    0.0000
     atom:    3    charge:    1.8328    magn:   -0.0013    constr:    0.0000
     atom:    4    charge:    1.8436    magn:    0.0080    constr:    0.0000
     atom:    5    charge:    1.8328    magn:   -0.0013    constr:    0.0000
     atom:    6    charge:    1.8222    magn:   -0.0000    constr:    0.0000
     atom:    7    charge:    1.8436    magn:    0.0080    constr:    0.0000
     atom:    8    charge:    1.8263    magn:   -0.0008    constr:    0.0000
     atom:    9    charge:    1.8066    magn:    0.0001    constr:    0.0000
     atom:   10    charge:    1.8200    magn:   -0.0014    constr:    0.0000
     atom:   11    charge:    1.8312    magn:   -0.0026    constr:    0.0000
     atom:   12    charge:    1.8200    magn:   -0.0014    constr:    0.0000
     atom:   13    charge:    1.8312    magn:   -0.0026    constr:    0.0000
     atom:   14    charge:    1.8261    magn:   -0.0015    constr:    0.0000
     atom:   15    charge:    1.8328    magn:   -0.0013    constr:    0.0000
     atom:   16    charge:    1.8333    magn:    0.0007    constr:    0.0000
     atom:   17    charge:    1.8312    magn:   -0.0026    constr:    0.0000
     atom:   18    charge:    1.8312    magn:   -0.0026    constr:    0.0000
     atom:   19    charge:    1.8333    magn:    0.0007    constr:    0.0000
     atom:   20    charge:    1.8263    magn:   -0.0008    constr:    0.0000
     atom:   21    charge:    1.8200    magn:   -0.0014    constr:    0.0000
     atom:   22    charge:    1.8200    magn:   -0.0014    constr:    0.0000
     atom:   23    charge:    1.8261    magn:   -0.0015    constr:    0.0000
     atom:   24    charge:    1.8066    magn:    0.0001    constr:    0.0000
     atom:   25    charge:    1.8312    magn:   -0.0026    constr:    0.0000
     atom:   26    charge:    1.8263    magn:   -0.0008    constr:    0.0000
     atom:   27    charge:    1.8200    magn:   -0.0014    constr:    0.0000
     atom:   28    charge:    1.8312    magn:   -0.0026    constr:    0.0000
     atom:   29    charge:    1.8333    magn:    0.0007    constr:    0.0000
     atom:   30    charge:    1.8066    magn:    0.0001    constr:    0.0000
     atom:   31    charge:    1.8200    magn:   -0.0014    constr:    0.0000
     atom:   32    charge:    1.8262    magn:    0.0060    constr:    0.0000
     atom:   33    charge:    1.8500    magn:    0.2009    constr:    0.0000
     atom:   34    charge:    1.8243    magn:    0.0165    constr:    0.0000
     atom:   35    charge:    1.8269    magn:    0.0068    constr:    0.0000
     atom:   36    charge:    1.8243    magn:    0.0165    constr:    0.0000
     atom:   37    charge:    1.8269    magn:    0.0068    constr:    0.0000
     atom:   38    charge:    1.8279    magn:    0.0050    constr:    0.0000
     atom:   39    charge:    1.8243    magn:    0.0165    constr:    0.0000
     atom:   40    charge:    1.8289    magn:    0.0040    constr:    0.0000
     atom:   41    charge:    1.8349    magn:    0.0094    constr:    0.0000
     atom:   42    charge:    1.8255    magn:    0.0174    constr:    0.0000
     atom:   43    charge:    1.8223    magn:    0.0046    constr:    0.0000
     atom:   44    charge:    1.8255    magn:    0.0174    constr:    0.0000
     atom:   45    charge:    1.8223    magn:    0.0046    constr:    0.0000
     atom:   46    charge:    1.8255    magn:    0.0174    constr:    0.0000
     atom:   47    charge:    1.8262    magn:    0.0060    constr:    0.0000
     atom:   48    charge:    1.8349    magn:    0.0094    constr:    0.0000
     atom:   49    charge:    1.8223    magn:    0.0046    constr:    0.0000
     atom:   50    charge:    1.8223    magn:    0.0046    constr:    0.0000
     atom:   51    charge:    1.8500    magn:    0.2009    constr:    0.0000
     atom:   52    charge:    1.8289    magn:    0.0040    constr:    0.0000
     atom:   53    charge:    1.8255    magn:    0.0174    constr:    0.0000
     atom:   54    charge:    1.8255    magn:    0.0174    constr:    0.0000
     atom:   55    charge:    1.8262    magn:    0.0060    constr:    0.0000
     atom:   56    charge:    1.8349    magn:    0.0094    constr:    0.0000
     atom:   57    charge:    1.8223    magn:    0.0046    constr:    0.0000
     atom:   58    charge:    1.8289    magn:    0.0040    constr:    0.0000
     atom:   59    charge:    1.8255    magn:    0.0174    constr:    0.0000
     atom:   60    charge:    1.8223    magn:    0.0046    constr:    0.0000
     atom:   61    charge:    1.8500    magn:    0.2009    constr:    0.0000
     atom:   62    charge:    1.8261    magn:   -0.0015    constr:    0.0000
     atom:   63    charge:    2.8936    magn:    0.1284    constr:    0.0000

     total cpu time spent up to now is       33.0 secs

     End of self-consistent calculation

 ------ SPIN UP ------------


          k = 0.0000 0.0000 0.0000 ( 24207 PWs)   bands (ev):

    -8.6491  -7.2408  -6.2863  -6.2863  -6.1520  -6.1520  -5.9065  -5.0377
    -4.1539  -4.1539  -4.1338  -4.1338  -4.0233  -4.0233  -3.9765  -3.9624
    -3.8584  -3.8584  -3.3764  -2.9879  -2.6783  -2.6783  -2.1143  -0.4187
    -0.4187  -0.3637  -0.3364  -0.1712   0.1429   0.1429   0.2600   0.2600
     0.3484   0.5743   0.7765   0.7765   0.9689   0.9689   0.9990   1.0092
     1.0092   1.0772   1.3248   1.3248   2.9950   3.7512   3.7512   3.9784
     4.1966   4.2085   4.2085   4.2125   4.2518   4.2518   4.4043   4.4043
     4.4467   4.4467   4.5835   4.6208   4.6208   4.6223   4.6565   4.7213
     4.7213   4.8555   4.9194   4.9194   5.0006   5.1872   5.1872   5.2339
     5.3175   5.3175   5.3665   5.4106   5.4106   5.9818   5.9818   6.0038
     6.5670   6.5670   6.7052   6.8910   6.9914   6.9914   7.4357   8.2308
     8.2308   8.3500   8.4394   8.4394   8.5986   8.5986   8.7569   8.7755
     8.7778   8.7778   8.8463   8.8463   8.8837   9.2275   9.2291   9.2291
     9.6309   9.6309   9.8579   9.8579   9.8601   9.8932   9.9287   9.9310
     9.9310   9.9484   9.9581   9.9581  10.0891  10.0891  10.2485  10.2485
    10.3066  10.5309  12.0922  12.3960  12.3960  13.4900  14.9443  14.9443
    17.2305  17.3149  17.3149  17.4817  17.5089  17.5089  17.8089  17.8704
    17.8704  17.9612  17.9612  18.3016  18.8535  18.8535  18.9142  20.5308
    20.7379  20.7380  20.8014  20.8673  20.8674  20.9550  20.9552  20.9813

     occupation numbers 
     1.0000   1.0000   1.0000   1.0000   1.0000   1.0000   1.0000   1.0000
     1.0000   1.0000   1.0000   1.0000   1.0000   1.0000   1.0000   1.0000
     1.0000   1.0000   1.0000   1.0000   1.0000   1.0000   1.0000   1.0000
     1.0000   1.0000   1.0000   1.0000   1.0000   1.0000   1.0000   1.0000
     1.0000   1.0000   1.0000   1.0000   1.0000   1.0000   1.0000   1.0000
     1.0000   1.0000   1.0000   1.0000   1.0000   1.0000   1.0000   1.0000
     1.0000   1.0000   1.0000   1.0000   1.0000   1.0000   1.0000   1.0000
     1.0000   1.0000   1.0000   1.0000   1.0000   1.0000   1.0000   1.0000
     1.0000   1.0000   1.0000   1.0000   1.0000   1.0000   1.0000   1.0000
     1.0000   1.0000   1.0000   1.0000   1.0000   1.0000   1.0000   1.0000
     1.0000   1.0000   1.0000   1.0000   1.0000   1.0000   1.0000   1.0000
     1.0000   1.0000   1.0000   1.0000   1.0000   1.0000   1.0000   1.0000
     1.0000   1.0000   1.0000   1.0000   1.0000   1.0000   1.0000   1.0000
     1.0000   1.0000   1.0000   1.0000   1.0000   1.0000   1.0000   1.0000
     1.0000   1.0000   1.0000   1.0000   1.0000   1.0000   1.0000   1.0000
     1.0000   1.0000   1.0000   1.0000   1.0000   1.0000   1.0000   1.0000
     0.0000   0.0000   0.0000   0.0000   0.0000   0.0000   0.0000   0.0000
     0.0000   0.0000   0.0000   0.0000   0.0000   0.0000   0.0000   0.0000
     0.0000   0.0000   0.0000   0.0000   0.0000   0.0000   0.0000   0.0000

          k = 0.0000 0.0000 0.3333 ( 24280 PWs)   bands (ev):

    -8.4455  -7.6428  -6.7543  -6.0434  -5.9130  -5.8300  -5.5208  -5.2952
    -5.1525  -5.0043  -4.5415  -4.1565  -3.8142  -3.8119  -3.6858  -3.4528
    -3.2082  -3.1501  -2.9346  -2.6215  -2.5059  -2.3677  -2.3346  -1.8003
    -0.8916  -0.6995  -0.5673  -0.3621   0.1267   0.2015   0.3571   0.4083
     0.4751   0.5519   0.5615   0.6602   0.7220   0.7356   0.9931   1.4546
     1.9579   2.0004   2.1655   2.1867   2.4049   2.4716   2.4719   2.7438
     2.9323   2.9910   3.1510   3.1767   3.8462   3.9183   4.0484   4.0661
     4.2892   4.3297   4.4791   4.5335   5.0140   5.0694   5.1094   5.1999
     5.2025   5.5576   5.5948   5.6989   5.7596   6.0292   6.0790   6.1591
     6.1930   6.3086   6.3707   6.4622   6.5058   6.5755   6.6114   6.7317
     6.7691   6.8844   6.9058   6.9303   7.1385   7.1487   7.1773   7.2714
     7.3706   7.4718   7.6603   7.7612   7.8154   8.0609   8.1138   8.2763
     8.3152   8.4470   8.6164   8.7011   8.7630   9.0533   9.1761   9.3326
     9.3592   9.6080   9.6375   9.7028   9.8066   9.9124   9.9321   9.9389
     9.9565  10.0431  10.0720  10.1187  10.2046  10.2555  10.2669  10.3499
    10.3822  11.0220  11.6701  11.6930  11.9323  13.1577  14.6290  14.7905
    17.1526  17.2910  17.9385  18.2620  18.3300  18.4835  18.5012  18.5875
    18.8090  18.8265  18.9629  19.0616  19.1743  19.7916  19.8393  20.4120
    20.6347  20.6517  20.7743  20.7906  20.8197  20.8481  20.8987  20.9348

     occupation numbers 
     1.0000   1.0000   1.0000   1.0000   1.0000   1.0000   1.0000   1.0000
     1.0000   1.0000   1.0000   1.0000   1.0000   1.0000   1.0000   1.0000
     1.0000   1.0000   1.0000   1.0000   1.0000   1.0000   1.0000   1.0000
     1.0000   1.0000   1.0000   1.0000   1.0000   1.0000   1.0000   1.0000
     1.0000   1.0000   1.0000   1.0000   1.0000   1.0000   1.0000   1.0000
     1.0000   1.0000   1.0000   1.0000   1.0000   1.0000   1.0000   1.0000
     1.0000   1.0000   1.0000   1.0000   1.0000   1.0000   1.0000   1.0000
     1.0000   1.0000   1.0000   1.0000   1.0000   1.0000   1.0000   1.0000
     1.0000   1.0000   1.0000   1.0000   1.0000   1.0000   1.0000   1.0000
     1.0000   1.0000   1.0000   1.0000   1.0000   1.0000   1.0000   1.0000
     1.0000   1.0000   1.0000   1.0000   1.0000   1.0000   1.0000   1.0000
     1.0000   1.0000   1.0000   1.0000   1.0000   1.0000   1.0000   1.0000
     1.0000   1.0000   1.0000   1.0000   1.0000   1.0000   1.0000   1.0000
     1.0000   1.0000   1.0000   1.0000   1.0000   1.0000   1.0000   1.0000
     1.0000   1.0000   1.0000   1.0000   1.0000   1.0000   1.0000   1.0000
     1.0000   1.0000   1.0000   1.0000   1.0000   1.0000   1.0000   1.0000
     0.0000   0.0000   0.0000   0.0000   0.0000   0.0000   0.0000   0.0000
     0.0000   0.0000   0.0000   0.0000   0.0000   0.0000   0.0000   0.0000
     0.0000   0.0000   0.0000   0.0000   0.0000   0.0000   0.0000   0.0000

          k = 0.0000 0.3333 0.3333 ( 24236 PWs)   bands (ev):

    -8.2688  -7.4945  -7.2241  -6.6265  -6.0213  -5.6745  -5.3749  -5.0123
    -4.9834  -4.8619  -4.5158  -4.2526  -4.2223  -3.9379  -3.5711  -3.5260
    -2.8240  -2.3852  -2.3461  -2.3170  -2.1934  -2.1927  -2.0454  -1.8903
    -1.4825  -1.3302  -1.1035  -0.9172  -0.5653  -0.0704   0.0512   0.1311
     0.1659   0.4609   0.6693   1.1748   1.1877   1.3229   1.3622   1.3880
     1.4266   1.4668   1.9421   2.0520   2.1171   2.3827   2.7158   2.8098
     2.9544   3.4726   3.6350   3.6377   3.7600   3.8123   3.9594   4.0377
     4.1205   4.5293   4.6350   4.7869   5.0018   5.0401   5.1391   5.2932
     5.3109   5.5787   5.6236   5.6739   5.7312   5.9071   5.9982   6.0654
     6.1470   6.2350   6.2873   6.4718   6.5338   6.5891   6.6537   6.8328
     6.9233   6.9507   7.0010   7.0584   7.2194   7.2658   7.4770   7.6626
     7.9227   7.9312   8.0552   8.0603   8.1196   8.2308   8.2675   8.3064
     8.3620   8.4098   8.5216   8.6383   8.6711   8.7077   8.8388   8.8854
     9.0923   9.1759   9.2357   9.3045   9.4611   9.4664   9.5425   9.6455
     9.7109   9.7757   9.9069  10.0374  10.0630  10.1407  10.3677  10.6457
    10.9779  11.1985  11.5552  11.5585  12.2049  12.9307  14.5513  14.8719
    18.0137  18.1694  18.2001  18.2985  18.3476  18.7909  18.8544  18.9620
    19.1635  19.2035  19.4353  19.4792  19.6817  19.7986  19.9583  19.9896
    20.1760  20.4164  20.4690  20.4934  20.5547  20.5816  20.6108  20.6276

     occupation numbers 
     1.0000   1.0000   1.0000   1.0000   1.0000   1.0000   1.0000   1.0000
     1.0000   1.0000   1.0000   1.0000   1.0000   1.0000   1.0000   1.0000
     1.0000   1.0000   1.0000   1.0000   1.0000   1.0000   1.0000   1.0000
     1.0000   1.0000   1.0000   1.0000   1.0000   1.0000   1.0000   1.0000
     1.0000   1.0000   1.0000   1.0000   1.0000   1.0000   1.0000   1.0000
     1.0000   1.0000   1.0000   1.0000   1.0000   1.0000   1.0000   1.0000
     1.0000   1.0000   1.0000   1.0000   1.0000   1.0000   1.0000   1.0000
     1.0000   1.0000   1.0000   1.0000   1.0000   1.0000   1.0000   1.0000
     1.0000   1.0000   1.0000   1.0000   1.0000   1.0000   1.0000   1.0000
     1.0000   1.0000   1.0000   1.0000   1.0000   1.0000   1.0000   1.0000
     1.0000   1.0000   1.0000   1.0000   1.0000   1.0000   1.0000   1.0000
     1.0000   1.0000   1.0000   1.0000   1.0000   1.0000   1.0000   1.0000
     1.0000   1.0000   1.0000   1.0000   1.0000   1.0000   1.0000   1.0000
     1.0000   1.0000   1.0000   1.0000   1.0000   1.0000   1.0000   1.0000
     1.0000   1.0000   1.0000   1.0000   1.0000   1.0000   1.0000   1.0000
     1.0000   1.0000   1.0000   1.0000   1.0000   1.0000   1.0000   1.0000
     0.0000   0.0000   0.0000   0.0000   0.0000   0.0000   0.0000   0.0000
     0.0000   0.0000   0.0000   0.0000   0.0000   0.0000   0.0000   0.0000
     0.0000   0.0000   0.0000   0.0000   0.0000   0.0000   0.0000   0.0000

          k = 0.3333 0.3333 0.3333 ( 24303 PWs)   bands (ev):

    -8.1225  -7.3215  -6.9769  -6.9769  -6.3506  -6.2152  -6.2152  -5.4767
    -4.2972  -4.0313  -4.0313  -3.5854  -3.3861  -3.3861  -3.3622  -3.3622
    -3.2734  -2.9131  -2.6649  -2.6649  -1.9562  -1.9342  -1.9342  -1.5472
    -1.4620  -1.4620  -1.3931  -1.3931  -1.3048  -1.2132  -1.2132   0.0327
     0.8410   0.8410   0.9369   0.9674   0.9674   1.2645   1.8203   1.8203
     1.8715   1.8831   1.9865   1.9865   2.5534   2.5534   2.5879   2.7230
     2.7376   2.7376   3.1277   3.1277   3.5217   4.0540   4.2948   4.2948
     4.7859   4.8672   4.8672   4.9706   5.0851   5.0851   5.1333   5.2944
     5.2944   5.3901   5.4871   5.4871   5.5297   5.5297   5.5801   6.3336
     6.6508   6.6508   6.9579   6.9741   7.0099   7.0099   7.0935   7.0935
     7.2019   7.2019   7.2488   7.2528   7.2528   7.2591   7.3664   7.3664
     7.3916   7.4724   7.7248   7.7248   7.9082   7.9082   7.9605   8.0154
     8.1906   8.1906   8.2886   8.2886   8.3112   8.4551   8.4615   8.4615
     8.6810   8.6810   8.7398   9.0855   9.0856   9.5249   9.5249   9.7664
     9.7664  10.4653  10.4777  10.4777  10.5292  10.9446  10.9446  11.0854
    11.2719  11.2719  11.3193  11.6482  11.6482  12.8182  14.8513  14.8513
    18.0440  18.2201  18.2201  18.4519  18.6294  18.6294  19.2017  19.3617
    19.3617  19.5459  19.5459  19.5833  19.6205  19.6205  19.6672  19.7408
    19.7408  19.8614  19.9117  19.9117  19.9917  19.9918  20.0323  20.1648

     occupation numbers 
     1.0000   1.0000   1.0000   1.0000   1.0000   1.0000   1.0000   1.0000
     1.0000   1.0000   1.0000   1.0000   1.0000   1.0000   1.0000   1.0000
     1.0000   1.0000   1.0000   1.0000   1.0000   1.0000   1.0000   1.0000
     1.0000   1.0000   1.0000   1.0000   1.0000   1.0000   1.0000   1.0000
     1.0000   1.0000   1.0000   1.0000   1.0000   1.0000   1.0000   1.0000
     1.0000   1.0000   1.0000   1.0000   1.0000   1.0000   1.0000   1.0000
     1.0000   1.0000   1.0000   1.0000   1.0000   1.0000   1.0000   1.0000
     1.0000   1.0000   1.0000   1.0000   1.0000   1.0000   1.0000   1.0000
     1.0000   1.0000   1.0000   1.0000   1.0000   1.0000   1.0000   1.0000
     1.0000   1.0000   1.0000   1.0000   1.0000   1.0000   1.0000   1.0000
     1.0000   1.0000   1.0000   1.0000   1.0000   1.0000   1.0000   1.0000
     1.0000   1.0000   1.0000   1.0000   1.0000   1.0000   1.0000   1.0000
     1.0000   1.0000   1.0000   1.0000   1.0000   1.0000   1.0000   1.0000
     1.0000   1.0000   1.0000   1.0000   1.0000   1.0000   1.0000   1.0000
     1.0000   1.0000   1.0000   1.0000   1.0000   1.0000   1.0000   1.0000
     1.0000   1.0000   1.0000   1.0000   1.0000   1.0000   1.0000   1.0000
     0.0000   0.0000   0.0000   0.0000   0.0000   0.0000   0.0000   0.0000
     0.0000   0.0000   0.0000   0.0000   0.0000   0.0000   0.0000   0.0000
     0.0000   0.0000   0.0000   0.0000   0.0000   0.0000   0.0000   0.0000

          k =-0.3333 0.0000 0.3333 ( 24236 PWs)   bands (ev):

    -8.2560  -7.5946  -7.1037  -6.6176  -6.0721  -5.6813  -5.3970  -5.0494
    -4.9313  -4.7535  -4.5385  -4.3199  -4.2270  -4.0523  -3.6023  -3.3366
    -2.8099  -2.4369  -2.3785  -2.2813  -2.2087  -2.1549  -2.1001  -1.6764
    -1.6307  -1.3209  -1.1177  -1.0060  -0.5956  -0.0330   0.0574   0.1069
     0.2775   0.4882   0.8800   1.0192   1.1721   1.2066   1.2367   1.3809
     1.4857   1.5816   1.8462   1.8749   2.1267   2.5794   2.6480   2.8650
     2.9543   3.4532   3.6217   3.7013   3.7492   3.9064   4.0053   4.1242
     4.1651   4.3780   4.5476   4.7818   4.9524   4.9822   5.1669   5.2432
     5.4007   5.5471   5.6220   5.6846   5.7842   5.9897   6.0707   6.1233
     6.1711   6.2298   6.2740   6.3959   6.4510   6.6162   6.6266   6.7917
     6.8819   6.9591   7.0155   7.0912   7.2184   7.3618   7.4812   7.6406
     7.8177   7.8640   7.9425   8.0735   8.1715   8.2087   8.2680   8.2743
     8.3597   8.4332   8.5433   8.5796   8.7383   8.7511   8.8956   8.9594
     9.0643   9.1273   9.2221   9.3173   9.4243   9.4846   9.5166   9.6611
     9.7172   9.7554   9.9443  10.0360  10.0756  10.1001  10.4949  10.7291
    10.8859  11.1147  11.4457  11.5702  12.1919  13.2313  14.4717  14.7578
    18.0017  18.1817  18.2513  18.3038  18.3516  18.7847  18.9184  19.0894
    19.0996  19.2627  19.3230  19.4742  19.6884  19.8225  19.8611  19.9996
    20.2190  20.3293  20.3970  20.5037  20.5367  20.5797  20.6363  20.6791

     occupation numbers 
     1.0000   1.0000   1.0000   1.0000   1.0000   1.0000   1.0000   1.0000
     1.0000   1.0000   1.0000   1.0000   1.0000   1.0000   1.0000   1.0000
     1.0000   1.0000   1.0000   1.0000   1.0000   1.0000   1.0000   1.0000
     1.0000   1.0000   1.0000   1.0000   1.0000   1.0000   1.0000   1.0000
     1.0000   1.0000   1.0000   1.0000   1.0000   1.0000   1.0000   1.0000
     1.0000   1.0000   1.0000   1.0000   1.0000   1.0000   1.0000   1.0000
     1.0000   1.0000   1.0000   1.0000   1.0000   1.0000   1.0000   1.0000
     1.0000   1.0000   1.0000   1.0000   1.0000   1.0000   1.0000   1.0000
     1.0000   1.0000   1.0000   1.0000   1.0000   1.0000   1.0000   1.0000
     1.0000   1.0000   1.0000   1.0000   1.0000   1.0000   1.0000   1.0000
     1.0000   1.0000   1.0000   1.0000   1.0000   1.0000   1.0000   1.0000
     1.0000   1.0000   1.0000   1.0000   1.0000   1.0000   1.0000   1.0000
     1.0000   1.0000   1.0000   1.0000   1.0000   1.0000   1.0000   1.0000
     1.0000   1.0000   1.0000   1.0000   1.0000   1.0000   1.0000   1.0000
     1.0000   1.0000   1.0000   1.0000   1.0000   1.0000   1.0000   1.0000
     1.0000   1.0000   1.0000   1.0000   1.0000   1.0000   1.0000   1.0000
     0.0000   0.0000   0.0000   0.0000   0.0000   0.0000   0.0000   0.0000
     0.0000   0.0000   0.0000   0.0000   0.0000   0.0000   0.0000   0.0000
     0.0000   0.0000   0.0000   0.0000   0.0000   0.0000   0.0000   0.0000

          k = 0.3333-0.3333 0.3333 ( 24303 PWs)   bands (ev):

    -8.1018  -7.4424  -6.9776  -6.8296  -6.4987  -6.2135  -5.9939  -5.5246
    -4.6050  -4.0350  -3.9474  -3.7233  -3.4312  -3.3731  -3.3299  -3.1940
    -3.0781  -2.8947  -2.6944  -2.4375  -2.1059  -1.9028  -1.8621  -1.7309
    -1.4973  -1.4820  -1.4111  -1.3547  -1.3486  -1.2507  -1.1522  -0.1128
     0.7138   0.8833   0.9435   0.9708   1.0520   1.4019   1.6919   1.7595
     1.8593   1.9252   2.0439   2.2282   2.5522   2.5873   2.6825   2.7110
     2.7299   2.7743   2.8982   3.1710   3.4744   3.9501   4.2104   4.3175
     4.7492   4.7500   4.8358   4.9996   5.0040   5.0654   5.1804   5.2519
     5.2733   5.4256   5.4377   5.5123   5.6537   5.7747   5.8309   6.4069
     6.5909   6.6967   6.9051   6.9175   6.9667   7.0305   7.0776   7.0864
     7.1592   7.1828   7.2360   7.2566   7.2796   7.3124   7.3440   7.3566
     7.3892   7.4403   7.7225   7.7365   7.8035   7.9212   7.9492   7.9547
     8.1302   8.1621   8.2728   8.2836   8.3829   8.3833   8.4119   8.5141
     8.6888   8.7376   8.9336   8.9889   9.0823   9.5059   9.5836   9.5949
     9.8745  10.3824  10.4242  10.5307  10.5387  10.8610  10.9243  11.1196
    11.2240  11.2471  11.3073  11.7058  11.7383  13.2055  14.5422  14.8406
    18.0605  18.2531  18.3183  18.5152  18.6488  18.7091  19.1323  19.3633
    19.4230  19.4875  19.5164  19.5510  19.5996  19.6233  19.6452  19.7210
    19.7422  19.7823  19.8991  19.9063  19.9884  19.9896  20.0377  20.1485

     occupation numbers 
     1.0000   1.0000   1.0000   1.0000   1.0000   1.0000   1.0000   1.0000
     1.0000   1.0000   1.0000   1.0000   1.0000   1.0000   1.0000   1.0000
     1.0000   1.0000   1.0000   1.0000   1.0000   1.0000   1.0000   1.0000
     1.0000   1.0000   1.0000   1.0000   1.0000   1.0000   1.0000   1.0000
     1.0000   1.0000   1.0000   1.0000   1.0000   1.0000   1.0000   1.0000
     1.0000   1.0000   1.0000   1.0000   1.0000   1.0000   1.0000   1.0000
     1.0000   1.0000   1.0000   1.0000   1.0000   1.0000   1.0000   1.0000
     1.0000   1.0000   1.0000   1.0000   1.0000   1.0000   1.0000   1.0000
     1.0000   1.0000   1.0000   1.0000   1.0000   1.0000   1.0000   1.0000
     1.0000   1.0000   1.0000   1.0000   1.0000   1.0000   1.0000   1.0000
     1.0000   1.0000   1.0000   1.0000   1.0000   1.0000   1.0000   1.0000
     1.0000   1.0000   1.0000   1.0000   1.0000   1.0000   1.0000   1.0000
     1.0000   1.0000   1.0000   1.0000   1.0000   1.0000   1.0000   1.0000
     1.0000   1.0000   1.0000   1.0000   1.0000   1.0000   1.0000   1.0000
     1.0000   1.0000   1.0000   1.0000   1.0000   1.0000   1.0000   1.0000
     1.0000   1.0000   1.0000   1.0000   1.0000   1.0000   1.0000   1.0000
     0.0000   0.0000   0.0000   0.0000   0.0000   0.0000   0.0000   0.0000
     0.0000   0.0000   0.0000   0.0000   0.0000   0.0000   0.0000   0.0000
     0.0000   0.0000   0.0000   0.0000   0.0000   0.0000   0.0000   0.0000

 ------ SPIN DOWN ----------


          k = 0.0000 0.0000 0.0000 ( 24207 PWs)   bands (ev):

    -8.6079  -7.1609  -6.2687  -6.2687  -6.1184  -6.1184  -5.8693  -4.9923
    -4.1354  -4.1354  -4.1187  -4.1187  -3.9777  -3.9777  -3.9568  -3.9465
    -3.8160  -3.8160  -3.3325  -2.9595  -2.6310  -2.6310  -1.9949  -0.4009
    -0.4009  -0.3435  -0.3006  -0.0993   0.1612   0.1612   0.2921   0.2921
     0.3697   0.6114   0.7915   0.7915   0.9945   0.9945   1.0236   1.0253
     1.0253   1.0932   1.4638   1.4638   3.1086   3.7867   3.7867   4.0119
     4.2296   4.2333   4.2333   4.2369   4.2754   4.2754   4.4337   4.4337
     4.4809   4.4809   4.6003   4.6391   4.6391   4.6511   4.6699   4.7561
     4.7561   4.8787   4.9466   4.9466   5.0871   5.2209   5.2209   5.2667
     5.3290   5.3290   5.3757   5.4567   5.4567   6.0341   6.0341   6.0583
     6.5961   6.5961   6.7317   6.9672   7.0683   7.0683   7.6134   8.2707
     8.2707   8.3897   8.4685   8.4685   8.6313   8.6313   8.7935   8.7935
     8.7958   8.8262   8.8891   8.8891   8.9002   9.2597   9.2597   9.2626
     9.6627   9.6627   9.8689   9.8748   9.8748   9.9072   9.9545   9.9545
     9.9601   9.9661   9.9821   9.9821  10.1229  10.1229  10.2990  10.2990
    10.3539  11.0387  12.4564  12.5098  12.5098  14.1547  16.0373  16.0373
    17.2776  17.3338  17.3338  17.5055  17.5545  17.5545  17.8450  17.8929
    17.8929  17.9943  17.9943  18.4070  18.9309  18.9309  18.9627  20.6002
    20.7522  20.7522  20.8129  20.8902  20.8903  20.9761  20.9763  21.0022

     occupation numbers 
     1.0000   1.0000   1.0000   1.0000   1.0000   1.0000   1.0000   1.0000
     1.0000   1.0000   1.0000   1.0000   1.0000   1.0000   1.0000   1.0000
     1.0000   1.0000   1.0000   1.0000   1.0000   1.0000   1.0000   1.0000
     1.0000   1.0000   1.0000   1.0000   1.0000   1.0000   1.0000   1.0000
     1.0000   1.0000   1.0000   1.0000   1.0000   1.0000   1.0000   1.0000
     1.0000   1.0000   1.0000   1.0000   1.0000   1.0000   1.0000   1.0000
     1.0000   1.0000   1.0000   1.0000   1.0000   1.0000   1.0000   1.0000
     1.0000   1.0000   1.0000   1.0000   1.0000   1.0000   1.0000   1.0000
     1.0000   1.0000   1.0000   1.0000   1.0000   1.0000   1.0000   1.0000
     1.0000   1.0000   1.0000   1.0000   1.0000   1.0000   1.0000   1.0000
     1.0000   1.0000   1.0000   1.0000   1.0000   1.0000   1.0000   1.0000
     1.0000   1.0000   1.0000   1.0000   1.0000   1.0000   1.0000   1.0000
     1.0000   1.0000   1.0000   1.0000   1.0000   1.0000   1.0000   1.0000
     1.0000   1.0000   1.0000   1.0000   1.0000   1.0000   1.0000   1.0000
     1.0000   1.0000   1.0000   1.0000   1.0000   1.0000   1.0000   1.0000
     1.0000   1.0000   1.0000   1.0000   1.0000   0.0000   1.0000   0.0000
     0.0000   0.0000   0.0000   0.0000   0.0000   0.0000   0.0000   0.0000
     0.0000   0.0000   0.0000   0.0000   0.0000   0.0000   0.0000   0.0000
     0.0000   0.0000   0.0000   0.0000   0.0000   0.0000   0.0000   0.0000

          k = 0.0000 0.0000 0.3333 ( 24280 PWs)   bands (ev):

    -8.4000  -7.5996  -6.6881  -6.0259  -5.8824  -5.8043  -5.4983  -5.2774
    -5.1106  -4.9559  -4.5067  -4.1301  -3.7890  -3.7751  -3.6577  -3.4259
    -3.1696  -3.1082  -2.8956  -2.5931  -2.4870  -2.3250  -2.2882  -1.7199
    -0.8396  -0.6800  -0.5316  -0.3045   0.1676   0.2200   0.3801   0.4279
     0.5008   0.5862   0.5867   0.6863   0.7564   0.7660   1.0730   1.5136
     1.9938   2.0221   2.2028   2.2176   2.4506   2.5072   2.5113   2.7729
     2.9682   3.0124   3.2347   3.2441   3.8678   3.9566   4.0733   4.0848
     4.3093   4.3804   4.5194   4.5729   5.0524   5.1360   5.1545   5.2295
     5.2353   5.5933   5.6192   5.7345   5.8002   6.0636   6.1061   6.2051
     6.2202   6.3283   6.4002   6.4839   6.5474   6.6346   6.6407   6.7584
     6.7962   6.9215   6.9358   6.9712   7.1681   7.1743   7.2125   7.3060
     7.4198   7.5159   7.7446   7.8023   7.8654   8.0836   8.1449   8.3162
     8.3378   8.4698   8.6794   8.7577   8.7991   9.1192   9.2573   9.3786
     9.3976   9.6470   9.6666   9.7202   9.8416   9.9262   9.9589   9.9662
    10.0020  10.0741  10.1319  10.1371  10.2390  10.2991  10.3028  10.4288
    10.4323  11.3055  11.7561  11.8092  12.1201  14.0139  15.7302  15.9274
    17.1907  17.3218  17.9663  18.2979  18.3478  18.5060  18.5238  18.6299
    18.8464  18.8478  19.0040  19.1026  19.2606  19.8489  19.8857  20.4681
    20.6516  20.6881  20.7922  20.8072  20.8355  20.8763  20.9266  20.9561

     occupation numbers 
     1.0000   1.0000   1.0000   1.0000   1.0000   1.0000   1.0000   1.0000
     1.0000   1.0000   1.0000   1.0000   1.0000   1.0000   1.0000   1.0000
     1.0000   1.0000   1.0000   1.0000   1.0000   1.0000   1.0000   1.0000
     1.0000   1.0000   1.0000   1.0000   1.0000   1.0000   1.0000   1.0000
     1.0000   1.0000   1.0000   1.0000   1.0000   1.0000   1.0000   1.0000
     1.0000   1.0000   1.0000   1.0000   1.0000   1.0000   1.0000   1.0000
     1.0000   1.0000   1.0000   1.0000   1.0000   1.0000   1.0000   1.0000
     1.0000   1.0000   1.0000   1.0000   1.0000   1.0000   1.0000   1.0000
     1.0000   1.0000   1.0000   1.0000   1.0000   1.0000   1.0000   1.0000
     1.0000   1.0000   1.0000   1.0000   1.0000   1.0000   1.0000   1.0000
     1.0000   1.0000   1.0000   1.0000   1.0000   1.0000   1.0000   1.0000
     1.0000   1.0000   1.0000   1.0000   1.0000   1.0000   1.0000   1.0000
     1.0000   1.0000   1.0000   1.0000   1.0000   1.0000   1.0000   1.0000
     1.0000   1.0000   1.0000   1.0000   1.0000   1.0000   1.0000   1.0000
     1.0000   1.0000   1.0000   1.0000   1.0000   1.0000   1.0000   1.0000
     1.0000   1.0000   1.0000   1.0000   1.0000   0.0000   1.0000   0.0000
     0.0000   0.0000   0.0000   0.0000   0.0000   0.0000   0.0000   0.0000
     0.0000   0.0000   0.0000   0.0000   0.0000   0.0000   0.0000   0.0000
     0.0000   0.0000   0.0000   0.0000   0.0000   0.0000   0.0000   0.0000

          k = 0.0000 0.3333 0.3333 ( 24236 PWs)   bands (ev):

    -8.2165  -7.4474  -7.1982  -6.5857  -5.9833  -5.6457  -5.3386  -4.9810
    -4.9615  -4.8369  -4.4722  -4.2271  -4.1942  -3.8908  -3.5238  -3.4969
    -2.7854  -2.3641  -2.3178  -2.2958  -2.1632  -2.1560  -2.0000  -1.8479
    -1.4497  -1.3017  -1.0569  -0.8698  -0.4864  -0.0244   0.0710   0.1533
     0.2021   0.5024   0.7143   1.1987   1.2091   1.3427   1.3958   1.4206
     1.4641   1.5112   1.9702   2.1048   2.1801   2.4430   2.7398   2.8553
     2.9989   3.5292   3.6599   3.6645   3.7958   3.8322   4.0021   4.0623
     4.1703   4.5944   4.6661   4.8388   5.0373   5.0612   5.1718   5.3225
     5.3539   5.6201   5.6510   5.7230   5.7741   5.9358   6.0356   6.1038
     6.1595   6.2688   6.3177   6.5075   6.5544   6.6211   6.6876   6.8698
     6.9448   6.9750   7.0594   7.0878   7.2607   7.3078   7.5333   7.7190
     7.9632   8.0010   8.0867   8.0886   8.1417   8.2613   8.2970   8.3433
     8.3990   8.4351   8.5619   8.6660   8.7250   8.7339   8.8912   8.9183
     9.1179   9.2286   9.2647   9.3500   9.4999   9.5011   9.6050   9.6717
     9.7574   9.8175   9.9423  10.0899  10.0932  10.1718  10.4457  10.7831
    11.0794  11.2625  11.5854  11.8559  12.2743  13.8785  15.6706  15.9736
    18.0627  18.1974  18.2387  18.3214  18.3794  18.8165  18.8763  18.9947
    19.2010  19.2362  19.4697  19.5047  19.7085  19.8399  19.9881  20.0301
    20.2076  20.4422  20.4889  20.5177  20.5833  20.6126  20.6286  20.6562

     occupation numbers 
     1.0000   1.0000   1.0000   1.0000   1.0000   1.0000   1.0000   1.0000
     1.0000   1.0000   1.0000   1.0000   1.0000   1.0000   1.0000   1.0000
     1.0000   1.0000   1.0000   1.0000   1.0000   1.0000   1.0000   1.0000
     1.0000   1.0000   1.0000   1.0000   1.0000   1.0000   1.0000   1.0000
     1.0000   1.0000   1.0000   1.0000   1.0000   1.0000   1.0000   1.0000
     1.0000   1.0000   1.0000   1.0000   1.0000   1.0000   1.0000   1.0000
     1.0000   1.0000   1.0000   1.0000   1.0000   1.0000   1.0000   1.0000
     1.0000   1.0000   1.0000   1.0000   1.0000   1.0000   1.0000   1.0000
     1.0000   1.0000   1.0000   1.0000   1.0000   1.0000   1.0000   1.0000
     1.0000   1.0000   1.0000   1.0000   1.0000   1.0000   1.0000   1.0000
     1.0000   1.0000   1.0000   1.0000   1.0000   1.0000   1.0000   1.0000
     1.0000   1.0000   1.0000   1.0000   1.0000   1.0000   1.0000   1.0000
     1.0000   1.0000   1.0000   1.0000   1.0000   1.0000   1.0000   1.0000
     1.0000   1.0000   1.0000   1.0000   1.0000   1.0000   1.0000   1.0000
     1.0000   1.0000   1.0000   1.0000   1.0000   1.0000   1.0000   1.0000
     1.0000   1.0000   1.0000   1.0000   1.0000   0.0000   1.0000   0.0000
     0.0000   0.0000   0.0000   0.0000   0.0000   0.0000   0.0000   0.0000
     0.0000   0.0000   0.0000   0.0000   0.0000   0.0000   0.0000   0.0000
     0.0000   0.0000   0.0000   0.0000   0.0000   0.0000   0.0000   0.0000

          k = 0.3333 0.3333 0.3333 ( 24303 PWs)   bands (ev):

    -8.0616  -7.2764  -6.9520  -6.9520  -6.3147  -6.1868  -6.1868  -5.4273
    -4.2260  -4.0072  -4.0072  -3.5447  -3.3694  -3.3694  -3.3220  -3.3220
    -3.2540  -2.8892  -2.6207  -2.6207  -1.9313  -1.9142  -1.9142  -1.5240
    -1.4436  -1.4436  -1.3696  -1.3696  -1.2829  -1.1224  -1.1224   0.1612
     0.8643   0.8643   0.9943   0.9943   1.0017   1.3020   1.8467   1.8467
     1.8970   1.9239   2.0201   2.0201   2.5788   2.5788   2.6166   2.7403
     2.7651   2.7651   3.2123   3.2123   3.5604   4.1298   4.3216   4.3216
     4.8479   4.9096   4.9096   4.9871   5.1080   5.1080   5.1876   5.3252
     5.3252   5.4174   5.5147   5.5147   5.5628   5.5628   5.6354   6.4275
     6.6991   6.6991   6.9697   7.0180   7.0341   7.0341   7.1169   7.1169
     7.2221   7.2221   7.2716   7.2755   7.2775   7.2775   7.3982   7.3982
     7.4180   7.5330   7.7652   7.7652   7.9349   7.9349   7.9825   8.0352
     8.2234   8.2234   8.3143   8.3143   8.3312   8.4706   8.5122   8.5122
     8.7152   8.7152   8.8437   9.1243   9.1623   9.5754   9.5754   9.8436
     9.8436  10.5038  10.5038  10.5524  10.6124  10.9978  10.9978  11.2984
    11.2984  11.3430  11.5699  11.6886  11.6886  13.7261  15.9881  15.9881
    18.1053  18.2439  18.2439  18.4781  18.6593  18.6593  19.2352  19.3759
    19.3759  19.5691  19.5691  19.5973  19.6431  19.6431  19.6885  19.7587
    19.7587  19.8869  19.9383  19.9383  20.0306  20.0307  20.0464  20.1952

     occupation numbers 
     1.0000   1.0000   1.0000   1.0000   1.0000   1.0000   1.0000   1.0000
     1.0000   1.0000   1.0000   1.0000   1.0000   1.0000   1.0000   1.0000
     1.0000   1.0000   1.0000   1.0000   1.0000   1.0000   1.0000   1.0000
     1.0000   1.0000   1.0000   1.0000   1.0000   1.0000   1.0000   1.0000
     1.0000   1.0000   1.0000   1.0000   1.0000   1.0000   1.0000   1.0000
     1.0000   1.0000   1.0000   1.0000   1.0000   1.0000   1.0000   1.0000
     1.0000   1.0000   1.0000   1.0000   1.0000   1.0000   1.0000   1.0000
     1.0000   1.0000   1.0000   1.0000   1.0000   1.0000   1.0000   1.0000
     1.0000   1.0000   1.0000   1.0000   1.0000   1.0000   1.0000   1.0000
     1.0000   1.0000   1.0000   1.0000   1.0000   1.0000   1.0000   1.0000
     1.0000   1.0000   1.0000   1.0000   1.0000   1.0000   1.0000   1.0000
     1.0000   1.0000   1.0000   1.0000   1.0000   1.0000   1.0000   1.0000
     1.0000   1.0000   1.0000   1.0000   1.0000   1.0000   1.0000   1.0000
     1.0000   1.0000   1.0000   1.0000   1.0000   1.0000   1.0000   1.0000
     1.0000   1.0000   1.0000   1.0000   1.0000   1.0000   1.0000   1.0000
     1.0000   1.0000   1.0000   1.0000   1.0000   0.0000   1.0000   0.0000
     0.0000   0.0000   0.0000   0.0000   0.0000   0.0000   0.0000   0.0000
     0.0000   0.0000   0.0000   0.0000   0.0000   0.0000   0.0000   0.0000
     0.0000   0.0000   0.0000   0.0000   0.0000   0.0000   0.0000   0.0000

          k =-0.3333 0.0000 0.3333 ( 24236 PWs)   bands (ev):

    -8.2028  -7.5543  -7.0740  -6.5717  -6.0368  -5.6561  -5.3577  -5.0321
    -4.8930  -4.7175  -4.5156  -4.2843  -4.1922  -4.0195  -3.5608  -3.2985
    -2.7660  -2.4127  -2.3602  -2.2591  -2.1736  -2.1211  -2.0659  -1.6549
    -1.5507  -1.2883  -1.0842  -0.9514  -0.5310  -0.0156   0.0879   0.1378
     0.3207   0.5352   0.9464   1.0487   1.1948   1.2268   1.2693   1.4011
     1.5154   1.6264   1.8924   1.9056   2.1532   2.6449   2.6998   2.9067
     3.0024   3.4980   3.6608   3.7220   3.7786   3.9324   4.0450   4.1566
     4.2271   4.4327   4.5837   4.8336   4.9735   5.0144   5.1991   5.2779
     5.4399   5.5887   5.6480   5.7266   5.8299   6.0221   6.0867   6.1558
     6.1998   6.2599   6.3118   6.4276   6.4860   6.6449   6.6536   6.8116
     6.9053   6.9845   7.0516   7.1427   7.2707   7.4183   7.5390   7.6810
     7.9047   7.9158   7.9713   8.0895   8.2004   8.2314   8.2908   8.3075
     8.3953   8.4718   8.5851   8.6190   8.7701   8.7929   8.9271   8.9856
     9.1108   9.1610   9.2658   9.3610   9.4705   9.5299   9.5418   9.7030
     9.7546   9.8155   9.9742  10.0690  10.1102  10.1395  10.5432  10.9500
    10.9799  11.1940  11.5148  11.7392  12.3562  14.1103  15.5742  15.8729
    18.0398  18.2087  18.2798  18.3306  18.3826  18.8079  18.9426  19.1149
    19.1350  19.2898  19.3874  19.5067  19.7184  19.8666  19.8917  20.0471
    20.2516  20.3615  20.4287  20.5232  20.5573  20.6045  20.6587  20.7035

     occupation numbers 
     1.0000   1.0000   1.0000   1.0000   1.0000   1.0000   1.0000   1.0000
     1.0000   1.0000   1.0000   1.0000   1.0000   1.0000   1.0000   1.0000
     1.0000   1.0000   1.0000   1.0000   1.0000   1.0000   1.0000   1.0000
     1.0000   1.0000   1.0000   1.0000   1.0000   1.0000   1.0000   1.0000
     1.0000   1.0000   1.0000   1.0000   1.0000   1.0000   1.0000   1.0000
     1.0000   1.0000   1.0000   1.0000   1.0000   1.0000   1.0000   1.0000
     1.0000   1.0000   1.0000   1.0000   1.0000   1.0000   1.0000   1.0000
     1.0000   1.0000   1.0000   1.0000   1.0000   1.0000   1.0000   1.0000
     1.0000   1.0000   1.0000   1.0000   1.0000   1.0000   1.0000   1.0000
     1.0000   1.0000   1.0000   1.0000   1.0000   1.0000   1.0000   1.0000
     1.0000   1.0000   1.0000   1.0000   1.0000   1.0000   1.0000   1.0000
     1.0000   1.0000   1.0000   1.0000   1.0000   1.0000   1.0000   1.0000
     1.0000   1.0000   1.0000   1.0000   1.0000   1.0000   1.0000   1.0000
     1.0000   1.0000   1.0000   1.0000   1.0000   1.0000   1.0000   1.0000
     1.0000   1.0000   1.0000   1.0000   1.0000   1.0000   1.0000   1.0000
     1.0000   1.0000   1.0000   1.0000   1.0000   0.0000   1.0000   0.0000
     0.0000   0.0000   0.0000   0.0000   0.0000   0.0000   0.0000   0.0000
     0.0000   0.0000   0.0000   0.0000   0.0000   0.0000   0.0000   0.0000
     0.0000   0.0000   0.0000   0.0000   0.0000   0.0000   0.0000   0.0000

          k = 0.3333-0.3333 0.3333 ( 24303 PWs)   bands (ev):

    -8.0389  -7.4042  -6.9527  -6.8018  -6.4712  -6.1847  -5.9491  -5.4798
    -4.5432  -4.0131  -3.9249  -3.6842  -3.4095  -3.3473  -3.3131  -3.1604
    -3.0478  -2.8667  -2.6536  -2.3831  -2.0573  -1.8763  -1.8320  -1.7075
    -1.4798  -1.4664  -1.3874  -1.3322  -1.3236  -1.1831  -1.0675   0.0021
     0.7420   0.9077   0.9733   0.9951   1.0958   1.4493   1.7149   1.7953
     1.8812   1.9607   2.0742   2.2854   2.5928   2.6054   2.7056   2.7330
     2.7591   2.8261   2.9440   3.2609   3.5158   4.0100   4.2594   4.3465
     4.7732   4.7913   4.8878   5.0271   5.0316   5.0828   5.2263   5.2776
     5.2994   5.4522   5.4701   5.5457   5.7097   5.8281   5.8819   6.4881
     6.6202   6.7355   6.9314   6.9466   6.9816   7.0537   7.0924   7.1256
     7.1888   7.2066   7.2543   7.2868   7.3038   7.3516   7.3776   7.3860
     7.4180   7.4757   7.7649   7.7746   7.8461   7.9474   7.9745   7.9834
     8.1543   8.1884   8.2951   8.3185   8.4132   8.4257   8.4304   8.5624
     8.7250   8.7704   8.9912   9.0226   9.1957   9.5580   9.6338   9.6879
     9.9666  10.4080  10.5478  10.5563  10.6159  10.9671  10.9702  11.2207
    11.2486  11.3353  11.5016  11.7761  11.8145  14.0962  15.6501  15.9825
    18.0920  18.2752  18.3460  18.5475  18.6743  18.7573  19.1683  19.3865
    19.4381  19.5021  19.5342  19.5693  19.6387  19.6474  19.6747  19.7403
    19.7588  19.8091  19.9321  19.9322  20.0066  20.0086  20.0706  20.1821

     occupation numbers 
     1.0000   1.0000   1.0000   1.0000   1.0000   1.0000   1.0000   1.0000
     1.0000   1.0000   1.0000   1.0000   1.0000   1.0000   1.0000   1.0000
     1.0000   1.0000   1.0000   1.0000   1.0000   1.0000   1.0000   1.0000
     1.0000   1.0000   1.0000   1.0000   1.0000   1.0000   1.0000   1.0000
     1.0000   1.0000   1.0000   1.0000   1.0000   1.0000   1.0000   1.0000
     1.0000   1.0000   1.0000   1.0000   1.0000   1.0000   1.0000   1.0000
     1.0000   1.0000   1.0000   1.0000   1.0000   1.0000   1.0000   1.0000
     1.0000   1.0000   1.0000   1.0000   1.0000   1.0000   1.0000   1.0000
     1.0000   1.0000   1.0000   1.0000   1.0000   1.0000   1.0000   1.0000
     1.0000   1.0000   1.0000   1.0000   1.0000   1.0000   1.0000   1.0000
     1.0000   1.0000   1.0000   1.0000   1.0000   1.0000   1.0000   1.0000
     1.0000   1.0000   1.0000   1.0000   1.0000   1.0000   1.0000   1.0000
     1.0000   1.0000   1.0000   1.0000   1.0000   1.0000   1.0000   1.0000
     1.0000   1.0000   1.0000   1.0000   1.0000   1.0000   1.0000   1.0000
     1.0000   1.0000   1.0000   1.0000   1.0000   1.0000   1.0000   1.0000
     1.0000   1.0000   1.0000   1.0000   1.0000   0.0000   1.0000   0.0000
     0.0000   0.0000   0.0000   0.0000   0.0000   0.0000   0.0000   0.0000
     0.0000   0.0000   0.0000   0.0000   0.0000   0.0000   0.0000   0.0000
     0.0000   0.0000   0.0000   0.0000   0.0000   0.0000   0.0000   0.0000

     highest occupied, lowest unoccupied level (ev):    14.9443   13.7261

!    total energy              =    -724.68686587 Ry
     Harris-Foulkes estimate   =    -724.68686496 Ry
     estimated scf accuracy    <       0.00000098 Ry

     The total energy is the sum of the following terms:

     one-electron contribution =     233.00397648 Ry
     hartree contribution      =      69.15235562 Ry
     xc contribution           =    -226.40319692 Ry
     ewald contribution        =    -800.44000104 Ry

     total magnetization       =     2.00 Bohr mag/cell
     absolute magnetization    =     2.20 Bohr mag/cell

     convergence has been achieved in  10 iterations

     Writing output data file di.save
 
     init_run     :      1.25s CPU      1.64s WALL (       1 calls)
     electrons    :     28.84s CPU     29.29s WALL (       1 calls)

     Called by init_run:
     wfcinit      :      0.76s CPU      0.84s WALL (       1 calls)
     wfcinit:atom :      0.01s CPU      0.01s WALL (       2 calls)
     wfcinit:wfcr :      0.71s CPU      0.78s WALL (       2 calls)
     potinit      :      0.08s CPU      0.09s WALL (       1 calls)

     Called by electrons:
     c_bands      :     27.09s CPU     27.50s WALL (      10 calls)
     sum_band     :      1.18s CPU      1.19s WALL (      10 calls)
     v_of_rho     :      0.41s CPU      0.41s WALL (      11 calls)
     v_h          :      0.01s CPU      0.01s WALL (      11 calls)
     v_xc         :      0.39s CPU      0.40s WALL (      11 calls)
     mix_rho      :      0.07s CPU      0.08s WALL (      10 calls)

     Called by c_bands:
     init_us_2    :      0.19s CPU      0.19s WALL (      42 calls)
     cegterg      :     24.50s CPU     24.89s WALL (      20 calls)

     Called by sum_band:

     Called by *egterg:
     h_psi        :      9.35s CPU      9.48s WALL (     146 calls)
     g_psi        :      0.05s CPU      0.05s WALL (     124 calls)
     cdiaghg      :     10.90s CPU     10.95s WALL (     144 calls)
     cegterg:over :      1.89s CPU      1.90s WALL (     124 calls)
     cegterg:upda :      1.41s CPU      1.42s WALL (     124 calls)
     cegterg:last :      0.52s CPU      0.52s WALL (      20 calls)

     Called by h_psi:
     h_psi:pot    :      9.24s CPU      9.37s WALL (     146 calls)
     h_psi:calbec :      2.02s CPU      2.04s WALL (     146 calls)
     vloc_psi     :      5.14s CPU      5.23s WALL (     146 calls)
     add_vuspsi   :      2.07s CPU      2.09s WALL (     146 calls)

     General routines
     calbec       :      2.02s CPU      2.04s WALL (     146 calls)
     fft          :      0.13s CPU      0.35s WALL (     228 calls)
     fftw         :      5.48s CPU      5.50s WALL (   20462 calls)
 
     Parallel routines
     fft_scatter  :      1.69s CPU      1.67s WALL (   20690 calls)
 
     PWSCF        :    32.93s CPU        36.53s WALL

 
   This run was terminated on:  10:30: 6  12May2020            

=------------------------------------------------------------------------------=
   JOB DONE.
=------------------------------------------------------------------------------=
