
     Program PWSCF v.6.1 (svn rev. 13369) starts on 12May2020 at 10:24:34 

     This program is part of the open-source Quantum ESPRESSO suite
     for quantum simulation of materials; please cite
         "P. Giannozzi et al., J. Phys.:Condens. Matter 21 395502 (2009);
          URL http://www.quantum-espresso.org", 
     in publications or presentations arising from this work. More details at
     http://www.quantum-espresso.org/quote

     Parallel version (MPI), running on    96 processors
     K-points division:     npool     =       6
     R & G space division:  proc/nbgrp/npool/nimage =      16
     Reading input from scf.in
Warning: card &IONS ignored
Warning: card / ignored

     Current dimensions of program PWSCF are:
     Max number of different atomic species (ntypx) = 10
     Max number of k-points (npk) =  40000
     Max angular momentum in pseudopotentials (lmaxx) =  3

     Subspace diagonalization in iterative solution of the eigenvalue problem:
     a serial algorithm will be used

 
     Parallelization info
     --------------------
     sticks:   dense  smooth     PW     G-vecs:    dense   smooth      PW
     Min         252     252     67                12125    12125    1669
     Max         254     254     68                12129    12129    1672
     Sum        4049    4049   1085               194039   194039   26745
 


     bravais-lattice index     =            1
     lattice parameter (alat)  =      13.4862  a.u.
     unit-cell volume          =    2452.8358 (a.u.)^3
     number of atoms/cell      =           63
     number of atomic types    =            2
     number of electrons       =       254.00 (up: 127.00, down: 127.00)
     number of Kohn-Sham states=          152
     kinetic-energy cutoff     =      70.0000  Ry
     charge density cutoff     =     280.0000  Ry
     convergence threshold     =      1.0E-06
     mixing beta               =       0.5000
     number of iterations used =            8  plain     mixing
     Exchange-correlation      = PBE ( 1  4  3  4 0 0)

     celldm(1)=  13.486197  celldm(2)=   0.000000  celldm(3)=   0.000000
     celldm(4)=   0.000000  celldm(5)=   0.000000  celldm(6)=   0.000000

     crystal axes: (cart. coord. in units of alat)
               a(1) = (   1.000000   0.000000   0.000000 )  
               a(2) = (   0.000000   1.000000   0.000000 )  
               a(3) = (   0.000000   0.000000   1.000000 )  

     reciprocal axes: (cart. coord. in units 2 pi/alat)
               b(1) = (  1.000000  0.000000  0.000000 )  
               b(2) = (  0.000000  1.000000  0.000000 )  
               b(3) = (  0.000000  0.000000  1.000000 )  


     PseudoPot. # 1 for C  read from file:
     /home/tjsmart/Pseudo/C_ONCV_PBE-1.0.upf
     MD5 check sum: 72b63e32b2fd29504de26a4901699f60
     Pseudo is Norm-conserving, Zval =  4.0
     Generated using ONCVPSP code by D. R. Hamann
     Using radial grid of 1248 points,  4 beta functions with: 
                l(1) =   0
                l(2) =   0
                l(3) =   1
                l(4) =   1

     PseudoPot. # 2 for N  read from file:
     /home/tjsmart/Pseudo/N_ONCV_PBE-1.0.upf
     MD5 check sum: 09890da6b2972017450f7114a6086fad
     Pseudo is Norm-conserving, Zval =  5.0
     Generated using ONCVPSP code by D. R. Hamann
     Using radial grid of 1058 points,  4 beta functions with: 
                l(1) =   0
                l(2) =   0
                l(3) =   1
                l(4) =   1

     atomic species   valence    mass     pseudopotential
        C              4.00    12.01110     C ( 1.00)
        N              5.00    14.00670     N ( 1.00)

     Starting magnetic structure 
     atomic species   magnetization
        C            0.200
        N            0.200

      6 Sym. Ops. (no inversion) found


                                    s                        frac. trans.

      isym =  1     identity                                     

 cryst.   s( 1) = (     1          0          0      )
                  (     0          1          0      )
                  (     0          0          1      )

 cart.    s( 1) = (  1.0000000  0.0000000  0.0000000 )
                  (  0.0000000  1.0000000  0.0000000 )
                  (  0.0000000  0.0000000  1.0000000 )


      isym =  2     120 deg rotation - cart. axis [-1,-1,-1]     

 cryst.   s( 2) = (     0          0          1      )
                  (     1          0          0      )
                  (     0          1          0      )

 cart.    s( 2) = (  0.0000000  1.0000000  0.0000000 )
                  (  0.0000000  0.0000000  1.0000000 )
                  (  1.0000000  0.0000000  0.0000000 )


      isym =  3     120 deg rotation - cart. axis [1,1,1]        

 cryst.   s( 3) = (     0          1          0      )
                  (     0          0          1      )
                  (     1          0          0      )

 cart.    s( 3) = (  0.0000000  0.0000000  1.0000000 )
                  (  1.0000000  0.0000000  0.0000000 )
                  (  0.0000000  1.0000000  0.0000000 )


      isym =  4     inv. 180 deg rotation - cart. axis [1,-1,0]  

 cryst.   s( 4) = (     0          1          0      )
                  (     1          0          0      )
                  (     0          0          1      )

 cart.    s( 4) = (  0.0000000  1.0000000  0.0000000 )
                  (  1.0000000  0.0000000  0.0000000 )
                  (  0.0000000  0.0000000  1.0000000 )


      isym =  5     inv. 180 deg rotation - cart. axis [-1,0,1]  

 cryst.   s( 5) = (     0          0          1      )
                  (     0          1          0      )
                  (     1          0          0      )

 cart.    s( 5) = (  0.0000000  0.0000000  1.0000000 )
                  (  0.0000000  1.0000000  0.0000000 )
                  (  1.0000000  0.0000000  0.0000000 )


      isym =  6     inv. 180 deg rotation - cart. axis [0,1,-1]  

 cryst.   s( 6) = (     1          0          0      )
                  (     0          0          1      )
                  (     0          1          0      )

 cart.    s( 6) = (  1.0000000  0.0000000  0.0000000 )
                  (  0.0000000  0.0000000  1.0000000 )
                  (  0.0000000  1.0000000  0.0000000 )


     point group C_3v (3m)  
     there are  3 classes
     the character table:

       E     2C3   3s_v 
A_1    1.00  1.00  1.00
A_2    1.00  1.00 -1.00
E      2.00 -1.00  0.00

     the symmetry operations in each class and the name of the first element:

     E        1
          identity                                               
     2C3      2    3
          120 deg rotation - cart. axis [-1,-1,-1]               
     3s_v     4    5    6
          inv. 180 deg rotation - cart. axis [1,-1,0]            

   Cartesian axes

     site n.     atom                  positions (alat units)
         1           C   tau(   1) = (   0.3757311   0.3757311   0.8737048  )
         2           C   tau(   2) = (   0.5000258   0.0001580   0.0001580  )
         3           C   tau(   3) = (   0.5000642  -0.0000239   0.5000642  )
         4           C   tau(   4) = (   0.0001580   0.5000258   0.0001580  )
         5           C   tau(   5) = (  -0.0000239   0.5000642   0.5000642  )
         6           C   tau(   6) = (  -0.0001102  -0.0001102  -0.0001102  )
         7           C   tau(   7) = (   0.0001580   0.0001580   0.5000258  )
         8           C   tau(   8) = (   0.2501920   0.2501920  -0.0012707  )
         9           C   tau(   9) = (   0.2505320   0.2505320   0.4945601  )
        10           C   tau(  10) = (   0.2504401   0.7490137   0.0010230  )
        11           C   tau(  11) = (   0.2528289   0.7476533   0.5015741  )
        12           C   tau(  12) = (   0.7490137   0.2504401   0.0010230  )
        13           C   tau(  13) = (   0.7476533   0.2528289   0.5015741  )
        14           C   tau(  14) = (   0.7496691   0.7496691  -0.0001254  )
        15           C   tau(  15) = (   0.5000642   0.5000642  -0.0000239  )
        16           C   tau(  16) = (   0.7492098   0.7492098   0.4988404  )
        17           C   tau(  17) = (   0.5015741   0.2528289   0.7476533  )
        18           C   tau(  18) = (   0.5015741   0.7476533   0.2528289  )
        19           C   tau(  19) = (   0.4988404   0.7492098   0.7492098  )
        20           C   tau(  20) = (  -0.0012707   0.2501920   0.2501920  )
        21           C   tau(  21) = (   0.0010230   0.2504401   0.7490137  )
        22           C   tau(  22) = (   0.0010230   0.7490137   0.2504401  )
        23           C   tau(  23) = (  -0.0001254   0.7496691   0.7496691  )
        24           C   tau(  24) = (   0.2505320   0.4945601   0.2505320  )
        25           C   tau(  25) = (   0.2528289   0.5015741   0.7476533  )
        26           C   tau(  26) = (   0.2501920  -0.0012707   0.2501920  )
        27           C   tau(  27) = (   0.2504401   0.0010230   0.7490137  )
        28           C   tau(  28) = (   0.7476533   0.5015741   0.2528289  )
        29           C   tau(  29) = (   0.7492098   0.4988404   0.7492098  )
        30           C   tau(  30) = (   0.4945601   0.2505320   0.2505320  )
        31           C   tau(  31) = (   0.7490137   0.0010230   0.2504401  )
        32           C   tau(  32) = (   0.6247337   0.8745453   0.6247337  )
        33           C   tau(  33) = (   0.6345137   0.3680873   0.6345137  )
        34           C   tau(  34) = (   0.3759221   0.8761994   0.8761994  )
        35           C   tau(  35) = (   0.3757311   0.8737048   0.3757311  )
        36           C   tau(  36) = (   0.8761994   0.3759221   0.8761994  )
        37           C   tau(  37) = (   0.8737048   0.3757311   0.3757311  )
        38           C   tau(  38) = (   0.8747396   0.8747396   0.8747396  )
        39           C   tau(  39) = (   0.8761994   0.8761994   0.3759221  )
        40           C   tau(  40) = (   0.1253854   0.1253854   0.8742212  )
        41           C   tau(  41) = (   0.1237552   0.1237552   0.3748651  )
        42           C   tau(  42) = (   0.1244680   0.6245824   0.8758047  )
        43           C   tau(  43) = (   0.1271669   0.6228539   0.3762993  )
        44           C   tau(  44) = (   0.6245824   0.1244680   0.8758047  )
        45           C   tau(  45) = (   0.6228539   0.1271669   0.3762993  )
        46           C   tau(  46) = (   0.6245824   0.8758047   0.1244680  )
        47           C   tau(  47) = (   0.6247337   0.6247337   0.8745453  )
        48           C   tau(  48) = (   0.3748651   0.1237552   0.1237552  )
        49           C   tau(  49) = (   0.3762993   0.1271669   0.6228539  )
        50           C   tau(  50) = (   0.3762993   0.6228539   0.1271669  )
        51           C   tau(  51) = (   0.3680873   0.6345137   0.6345137  )
        52           C   tau(  52) = (   0.8742212   0.1253854   0.1253854  )
        53           C   tau(  53) = (   0.8758047   0.1244680   0.6245824  )
        54           C   tau(  54) = (   0.8758047   0.6245824   0.1244680  )
        55           C   tau(  55) = (   0.8745453   0.6247337   0.6247337  )
        56           C   tau(  56) = (   0.1237552   0.3748651   0.1237552  )
        57           C   tau(  57) = (   0.1271669   0.3762993   0.6228539  )
        58           C   tau(  58) = (   0.1253854   0.8742212   0.1253854  )
        59           C   tau(  59) = (   0.1244680   0.8758047   0.6245824  )
        60           C   tau(  60) = (   0.6228539   0.3762993   0.1271669  )
        61           C   tau(  61) = (   0.6345137   0.6345137   0.3680873  )
        62           C   tau(  62) = (   0.7496691  -0.0001254   0.7496691  )
        63           N   tau(  63) = (   0.3643153   0.3643153   0.3643153  )

   Crystallographic axes

     site n.     atom                  positions (cryst. coord.)
         1           C   tau(   1) = (  0.3757311  0.3757311  0.8737048  )
         2           C   tau(   2) = (  0.5000258  0.0001580  0.0001580  )
         3           C   tau(   3) = (  0.5000642 -0.0000239  0.5000642  )
         4           C   tau(   4) = (  0.0001580  0.5000258  0.0001580  )
         5           C   tau(   5) = ( -0.0000239  0.5000642  0.5000642  )
         6           C   tau(   6) = ( -0.0001102 -0.0001102 -0.0001102  )
         7           C   tau(   7) = (  0.0001580  0.0001580  0.5000258  )
         8           C   tau(   8) = (  0.2501920  0.2501920 -0.0012707  )
         9           C   tau(   9) = (  0.2505320  0.2505320  0.4945601  )
        10           C   tau(  10) = (  0.2504401  0.7490137  0.0010230  )
        11           C   tau(  11) = (  0.2528289  0.7476533  0.5015741  )
        12           C   tau(  12) = (  0.7490137  0.2504401  0.0010230  )
        13           C   tau(  13) = (  0.7476533  0.2528289  0.5015741  )
        14           C   tau(  14) = (  0.7496691  0.7496691 -0.0001254  )
        15           C   tau(  15) = (  0.5000642  0.5000642 -0.0000239  )
        16           C   tau(  16) = (  0.7492098  0.7492098  0.4988404  )
        17           C   tau(  17) = (  0.5015741  0.2528289  0.7476533  )
        18           C   tau(  18) = (  0.5015741  0.7476533  0.2528289  )
        19           C   tau(  19) = (  0.4988404  0.7492098  0.7492098  )
        20           C   tau(  20) = ( -0.0012707  0.2501920  0.2501920  )
        21           C   tau(  21) = (  0.0010230  0.2504401  0.7490137  )
        22           C   tau(  22) = (  0.0010230  0.7490137  0.2504401  )
        23           C   tau(  23) = ( -0.0001254  0.7496691  0.7496691  )
        24           C   tau(  24) = (  0.2505320  0.4945601  0.2505320  )
        25           C   tau(  25) = (  0.2528289  0.5015741  0.7476533  )
        26           C   tau(  26) = (  0.2501920 -0.0012707  0.2501920  )
        27           C   tau(  27) = (  0.2504401  0.0010230  0.7490137  )
        28           C   tau(  28) = (  0.7476533  0.5015741  0.2528289  )
        29           C   tau(  29) = (  0.7492098  0.4988404  0.7492098  )
        30           C   tau(  30) = (  0.4945601  0.2505320  0.2505320  )
        31           C   tau(  31) = (  0.7490137  0.0010230  0.2504401  )
        32           C   tau(  32) = (  0.6247337  0.8745453  0.6247337  )
        33           C   tau(  33) = (  0.6345137  0.3680873  0.6345137  )
        34           C   tau(  34) = (  0.3759221  0.8761994  0.8761994  )
        35           C   tau(  35) = (  0.3757311  0.8737048  0.3757311  )
        36           C   tau(  36) = (  0.8761994  0.3759221  0.8761994  )
        37           C   tau(  37) = (  0.8737048  0.3757311  0.3757311  )
        38           C   tau(  38) = (  0.8747396  0.8747396  0.8747396  )
        39           C   tau(  39) = (  0.8761994  0.8761994  0.3759221  )
        40           C   tau(  40) = (  0.1253854  0.1253854  0.8742212  )
        41           C   tau(  41) = (  0.1237552  0.1237552  0.3748651  )
        42           C   tau(  42) = (  0.1244680  0.6245824  0.8758047  )
        43           C   tau(  43) = (  0.1271669  0.6228539  0.3762993  )
        44           C   tau(  44) = (  0.6245824  0.1244680  0.8758047  )
        45           C   tau(  45) = (  0.6228539  0.1271669  0.3762993  )
        46           C   tau(  46) = (  0.6245824  0.8758047  0.1244680  )
        47           C   tau(  47) = (  0.6247337  0.6247337  0.8745453  )
        48           C   tau(  48) = (  0.3748651  0.1237552  0.1237552  )
        49           C   tau(  49) = (  0.3762993  0.1271669  0.6228539  )
        50           C   tau(  50) = (  0.3762993  0.6228539  0.1271669  )
        51           C   tau(  51) = (  0.3680873  0.6345137  0.6345137  )
        52           C   tau(  52) = (  0.8742212  0.1253854  0.1253854  )
        53           C   tau(  53) = (  0.8758047  0.1244680  0.6245824  )
        54           C   tau(  54) = (  0.8758047  0.6245824  0.1244680  )
        55           C   tau(  55) = (  0.8745453  0.6247337  0.6247337  )
        56           C   tau(  56) = (  0.1237552  0.3748651  0.1237552  )
        57           C   tau(  57) = (  0.1271669  0.3762993  0.6228539  )
        58           C   tau(  58) = (  0.1253854  0.8742212  0.1253854  )
        59           C   tau(  59) = (  0.1244680  0.8758047  0.6245824  )
        60           C   tau(  60) = (  0.6228539  0.3762993  0.1271669  )
        61           C   tau(  61) = (  0.6345137  0.6345137  0.3680873  )
        62           C   tau(  62) = (  0.7496691 -0.0001254  0.7496691  )
        63           N   tau(  63) = (  0.3643153  0.3643153  0.3643153  )

     number of k points=     6  Marzari-Vanderbilt smearing, width (Ry)=  0.0010
                       cart. coord. in units 2pi/alat
        k(    1) = (   0.0000000   0.0000000   0.0000000), wk =   0.0370370
        k(    2) = (   0.0000000   0.0000000   0.3333333), wk =   0.2222222
        k(    3) = (   0.0000000   0.3333333   0.3333333), wk =   0.2222222
        k(    4) = (   0.3333333   0.3333333   0.3333333), wk =   0.0740741
        k(    5) = (  -0.3333333   0.0000000   0.3333333), wk =   0.2222222
        k(    6) = (   0.3333333  -0.3333333   0.3333333), wk =   0.2222222

                       cryst. coord.
        k(    1) = (   0.0000000   0.0000000   0.0000000), wk =   0.0370370
        k(    2) = (   0.0000000   0.0000000   0.3333333), wk =   0.2222222
        k(    3) = (   0.0000000   0.3333333   0.3333333), wk =   0.2222222
        k(    4) = (   0.3333333   0.3333333   0.3333333), wk =   0.0740741
        k(    5) = (  -0.3333333   0.0000000   0.3333333), wk =   0.2222222
        k(    6) = (   0.3333333  -0.3333333   0.3333333), wk =   0.2222222

     Dense  grid:   194039 G-vectors     FFT dimensions: (  72,  72,  72)

     Estimated max dynamical RAM per process >      60.23MB

     Estimated total allocated dynamical RAM >    5782.56MB
     Generating pointlists ...
     new r_m :   0.0854 (alat units)  1.1517 (a.u.) for type    1
     new r_m :   0.0854 (alat units)  1.1517 (a.u.) for type    2

     Initial potential from superposition of free atoms

     starting charge  252.99722, renormalised to  254.00000
     Starting wfc are  252 randomized atomic wfcs

     total cpu time spent up to now is        3.6 secs

     per-process dynamical memory:    59.5 Mb

     Self-consistent Calculation

     iteration #  1     ecut=    70.00 Ry     beta=0.50
     Davidson diagonalization with overlap
     ethr =  1.00E-02,  avg # of iterations =  3.0

     total cpu time spent up to now is        5.9 secs

     total energy              =    -724.34567987 Ry
     Harris-Foulkes estimate   =    -724.78235982 Ry
     estimated scf accuracy    <       4.21721420 Ry

     total magnetization       =     0.00 Bohr mag/cell
     absolute magnetization    =     0.90 Bohr mag/cell

     iteration #  2     ecut=    70.00 Ry     beta=0.50
     Davidson diagonalization with overlap
     ethr =  1.66E-03,  avg # of iterations =  2.0

     total cpu time spent up to now is        7.3 secs

     total energy              =    -724.66974807 Ry
     Harris-Foulkes estimate   =    -724.58554850 Ry
     estimated scf accuracy    <       0.66817905 Ry

     total magnetization       =     0.00 Bohr mag/cell
     absolute magnetization    =     0.35 Bohr mag/cell

     iteration #  3     ecut=    70.00 Ry     beta=0.50
     Davidson diagonalization with overlap
     ethr =  2.63E-04,  avg # of iterations =  8.8

     total cpu time spent up to now is       11.4 secs

     total energy              =    -724.73818499 Ry
     Harris-Foulkes estimate   =    -724.77967919 Ry
     estimated scf accuracy    <       0.15181084 Ry

     total magnetization       =    -0.00 Bohr mag/cell
     absolute magnetization    =     0.11 Bohr mag/cell

     iteration #  4     ecut=    70.00 Ry     beta=0.50
     Davidson diagonalization with overlap
     ethr =  5.98E-05,  avg # of iterations =  7.7

     total cpu time spent up to now is       15.4 secs

     total energy              =    -724.77648539 Ry
     Harris-Foulkes estimate   =    -724.77396476 Ry
     estimated scf accuracy    <       0.01289758 Ry

     total magnetization       =    -0.00 Bohr mag/cell
     absolute magnetization    =     0.07 Bohr mag/cell

     iteration #  5     ecut=    70.00 Ry     beta=0.50
     Davidson diagonalization with overlap
     ethr =  5.08E-06,  avg # of iterations =  9.0

     total cpu time spent up to now is       20.2 secs

     total energy              =    -724.77969666 Ry
     Harris-Foulkes estimate   =    -724.77947699 Ry
     estimated scf accuracy    <       0.00151451 Ry

     total magnetization       =     0.00 Bohr mag/cell
     absolute magnetization    =     0.04 Bohr mag/cell

     iteration #  6     ecut=    70.00 Ry     beta=0.50
     Davidson diagonalization with overlap
     ethr =  5.96E-07,  avg # of iterations =  7.5

     total cpu time spent up to now is       24.5 secs

     total energy              =    -724.77994533 Ry
     Harris-Foulkes estimate   =    -724.77997503 Ry
     estimated scf accuracy    <       0.00020052 Ry

     total magnetization       =    -0.00 Bohr mag/cell
     absolute magnetization    =     0.02 Bohr mag/cell

     iteration #  7     ecut=    70.00 Ry     beta=0.50
     Davidson diagonalization with overlap
     ethr =  7.89E-08,  avg # of iterations =  3.1

     total cpu time spent up to now is       27.2 secs

     total energy              =    -724.78000307 Ry
     Harris-Foulkes estimate   =    -724.78001221 Ry
     estimated scf accuracy    <       0.00003661 Ry

     total magnetization       =    -0.00 Bohr mag/cell
     absolute magnetization    =     0.01 Bohr mag/cell

     iteration #  8     ecut=    70.00 Ry     beta=0.50
     Davidson diagonalization with overlap
     ethr =  1.44E-08,  avg # of iterations =  2.7

     total cpu time spent up to now is       29.0 secs

     total energy              =    -724.78001092 Ry
     Harris-Foulkes estimate   =    -724.78001091 Ry
     estimated scf accuracy    <       0.00000296 Ry

     total magnetization       =     0.00 Bohr mag/cell
     absolute magnetization    =     0.01 Bohr mag/cell

     iteration #  9     ecut=    70.00 Ry     beta=0.50
     Davidson diagonalization with overlap
     ethr =  1.17E-09,  avg # of iterations =  3.2
 
     Magnetic moment per site:
     atom:    1    charge:    1.8222    magn:    0.0000    constr:    0.0000
     atom:    2    charge:    1.8380    magn:   -0.0000    constr:    0.0000
     atom:    3    charge:    1.8276    magn:    0.0000    constr:    0.0000
     atom:    4    charge:    1.8380    magn:   -0.0000    constr:    0.0000
     atom:    5    charge:    1.8276    magn:    0.0000    constr:    0.0000
     atom:    6    charge:    1.8171    magn:    0.0000    constr:    0.0000
     atom:    7    charge:    1.8380    magn:   -0.0000    constr:    0.0000
     atom:    8    charge:    1.8212    magn:    0.0000    constr:    0.0000
     atom:    9    charge:    1.8013    magn:   -0.0001    constr:    0.0000
     atom:   10    charge:    1.8153    magn:    0.0000    constr:    0.0000
     atom:   11    charge:    1.8256    magn:    0.0000    constr:    0.0000
     atom:   12    charge:    1.8153    magn:    0.0000    constr:    0.0000
     atom:   13    charge:    1.8256    magn:    0.0000    constr:    0.0000
     atom:   14    charge:    1.8213    magn:    0.0000    constr:    0.0000
     atom:   15    charge:    1.8276    magn:    0.0000    constr:    0.0000
     atom:   16    charge:    1.8302    magn:    0.0000    constr:    0.0000
     atom:   17    charge:    1.8256    magn:    0.0000    constr:    0.0000
     atom:   18    charge:    1.8256    magn:    0.0000    constr:    0.0000
     atom:   19    charge:    1.8302    magn:    0.0000    constr:    0.0000
     atom:   20    charge:    1.8212    magn:    0.0000    constr:    0.0000
     atom:   21    charge:    1.8153    magn:    0.0000    constr:    0.0000
     atom:   22    charge:    1.8153    magn:    0.0000    constr:    0.0000
     atom:   23    charge:    1.8213    magn:    0.0000    constr:    0.0000
     atom:   24    charge:    1.8013    magn:   -0.0001    constr:    0.0000
     atom:   25    charge:    1.8256    magn:    0.0000    constr:    0.0000
     atom:   26    charge:    1.8212    magn:    0.0000    constr:    0.0000
     atom:   27    charge:    1.8153    magn:    0.0000    constr:    0.0000
     atom:   28    charge:    1.8256    magn:    0.0000    constr:    0.0000
     atom:   29    charge:    1.8302    magn:    0.0000    constr:    0.0000
     atom:   30    charge:    1.8013    magn:   -0.0001    constr:    0.0000
     atom:   31    charge:    1.8153    magn:    0.0000    constr:    0.0000
     atom:   32    charge:    1.8211    magn:    0.0000    constr:    0.0000
     atom:   33    charge:    1.8287    magn:    0.0000    constr:    0.0000
     atom:   34    charge:    1.8194    magn:    0.0000    constr:    0.0000
     atom:   35    charge:    1.8222    magn:    0.0000    constr:    0.0000
     atom:   36    charge:    1.8194    magn:    0.0000    constr:    0.0000
     atom:   37    charge:    1.8222    magn:    0.0000    constr:    0.0000
     atom:   38    charge:    1.8226    magn:    0.0000    constr:    0.0000
     atom:   39    charge:    1.8194    magn:    0.0000    constr:    0.0000
     atom:   40    charge:    1.8241    magn:    0.0000    constr:    0.0000
     atom:   41    charge:    1.8320    magn:    0.0000    constr:    0.0000
     atom:   42    charge:    1.8194    magn:    0.0000    constr:    0.0000
     atom:   43    charge:    1.8174    magn:    0.0000    constr:    0.0000
     atom:   44    charge:    1.8194    magn:    0.0000    constr:    0.0000
     atom:   45    charge:    1.8174    magn:    0.0000    constr:    0.0000
     atom:   46    charge:    1.8194    magn:    0.0000    constr:    0.0000
     atom:   47    charge:    1.8211    magn:    0.0000    constr:    0.0000
     atom:   48    charge:    1.8320    magn:    0.0000    constr:    0.0000
     atom:   49    charge:    1.8174    magn:    0.0000    constr:    0.0000
     atom:   50    charge:    1.8174    magn:    0.0000    constr:    0.0000
     atom:   51    charge:    1.8287    magn:    0.0000    constr:    0.0000
     atom:   52    charge:    1.8241    magn:    0.0000    constr:    0.0000
     atom:   53    charge:    1.8194    magn:    0.0000    constr:    0.0000
     atom:   54    charge:    1.8194    magn:    0.0000    constr:    0.0000
     atom:   55    charge:    1.8211    magn:    0.0000    constr:    0.0000
     atom:   56    charge:    1.8320    magn:    0.0000    constr:    0.0000
     atom:   57    charge:    1.8174    magn:    0.0000    constr:    0.0000
     atom:   58    charge:    1.8241    magn:    0.0000    constr:    0.0000
     atom:   59    charge:    1.8194    magn:    0.0000    constr:    0.0000
     atom:   60    charge:    1.8174    magn:    0.0000    constr:    0.0000
     atom:   61    charge:    1.8287    magn:    0.0000    constr:    0.0000
     atom:   62    charge:    1.8213    magn:    0.0000    constr:    0.0000
     atom:   63    charge:    2.9147    magn:    0.0006    constr:    0.0000

     total cpu time spent up to now is       31.3 secs

     End of self-consistent calculation

 ------ SPIN UP ------------


          k = 0.0000 0.0000 0.0000 ( 24207 PWs)   bands (ev):

    -8.5623  -6.9781  -6.2744  -6.2744  -6.1612  -6.1612  -5.8849  -4.9389
    -4.1348  -4.1348  -4.1064  -4.1064  -4.0248  -4.0248  -3.9934  -3.9388
    -3.8737  -3.8737  -3.3603  -2.9694  -2.6757  -2.6757  -2.0863  -0.3810
    -0.3810  -0.3527  -0.3200  -0.1026   0.1659   0.1659   0.2791   0.2791
     0.3516   0.5897   0.8033   0.8033   0.9647   0.9647   0.9995   1.0115
     1.0115   1.0415   1.3280   1.3280   3.0483   3.8907   3.8907   4.0208
     4.2069   4.2104   4.2104   4.2170   4.2523   4.2523   4.4099   4.4099
     4.4615   4.4615   4.5746   4.6335   4.6335   4.6369   4.6479   4.7347
     4.7347   4.8678   4.9280   4.9280   5.0420   5.2016   5.2016   5.2601
     5.3211   5.3211   5.3602   5.3940   5.3940   6.0033   6.0033   6.0264
     6.5904   6.5904   6.7062   6.9687   7.0115   7.0115   7.5082   8.2960
     8.2960   8.3639   8.4385   8.4385   8.6159   8.6159   8.7705   8.7853
     8.7857   8.7857   8.8405   8.8405   8.8727   9.2289   9.2352   9.2352
     9.6586   9.6586   9.8626   9.8725   9.8725   9.8848   9.9115   9.9399
     9.9399   9.9415   9.9689   9.9689  10.0720  10.0720  10.2213  10.2213
    10.2888  11.0521  12.2514  12.4405  12.4405  13.8948  15.3014  15.3014
    17.3121  17.3355  17.3355  17.4991  17.5180  17.5180  17.8180  17.8772
    17.8772  17.9634  17.9634  18.3435  18.8939  18.8939  18.9249  20.6337
    20.7609  20.7609  20.8034  20.8871  20.8871  20.9638  20.9639  21.0011

     occupation numbers 
     1.0000   1.0000   1.0000   1.0000   1.0000   1.0000   1.0000   1.0000
     1.0000   1.0000   1.0000   1.0000   1.0000   1.0000   1.0000   1.0000
     1.0000   1.0000   1.0000   1.0000   1.0000   1.0000   1.0000   1.0000
     1.0000   1.0000   1.0000   1.0000   1.0000   1.0000   1.0000   1.0000
     1.0000   1.0000   1.0000   1.0000   1.0000   1.0000   1.0000   1.0000
     1.0000   1.0000   1.0000   1.0000   1.0000   1.0000   1.0000   1.0000
     1.0000   1.0000   1.0000   1.0000   1.0000   1.0000   1.0000   1.0000
     1.0000   1.0000   1.0000   1.0000   1.0000   1.0000   1.0000   1.0000
     1.0000   1.0000   1.0000   1.0000   1.0000   1.0000   1.0000   1.0000
     1.0000   1.0000   1.0000   1.0000   1.0000   1.0000   1.0000   1.0000
     1.0000   1.0000   1.0000   1.0000   1.0000   1.0000   1.0000   1.0000
     1.0000   1.0000   1.0000   1.0000   1.0000   1.0000   1.0000   1.0000
     1.0000   1.0000   1.0000   1.0000   1.0000   1.0000   1.0000   1.0000
     1.0000   1.0000   1.0000   1.0000   1.0000   1.0000   1.0000   1.0000
     1.0000   1.0000   1.0000   1.0000   1.0000   1.0000   1.0000   1.0000
     1.0000   1.0000   1.0000   1.0000   1.0000   1.0000   0.0000   0.0000
     0.0000   0.0000   0.0000   0.0000   0.0000   0.0000   0.0000   0.0000
     0.0000   0.0000   0.0000   0.0000   0.0000   0.0000   0.0000   0.0000
     0.0000   0.0000   0.0000   0.0000   0.0000   0.0000   0.0000   0.0000

          k = 0.0000 0.0000 0.3333 ( 24280 PWs)   bands (ev):

    -8.3337  -7.5631  -6.5761  -6.0292  -5.9209  -5.8169  -5.4930  -5.2883
    -5.1651  -4.9760  -4.5115  -4.1272  -3.8009  -3.7902  -3.6802  -3.4413
    -3.1965  -3.1481  -2.9251  -2.6021  -2.4998  -2.3793  -2.3197  -1.7714
    -0.8399  -0.6880  -0.5765  -0.3392   0.1739   0.2586   0.3703   0.4062
     0.4775   0.5629   0.5753   0.6637   0.7259   0.7432   0.9896   1.4780
     1.9866   2.0146   2.1599   2.2278   2.4220   2.4823   2.4896   2.7496
     2.9479   3.0035   3.1681   3.1764   3.8928   3.9686   4.0568   4.0688
     4.2976   4.3694   4.5083   4.5544   5.0762   5.1071   5.1422   5.2074
     5.2141   5.5884   5.6158   5.7165   5.7534   6.0658   6.1089   6.1878
     6.1944   6.3263   6.3960   6.4600   6.5122   6.6176   6.6251   6.7466
     6.7692   6.8879   6.9125   6.9389   7.1497   7.1582   7.1837   7.2694
     7.4112   7.4816   7.6763   7.7743   7.8253   8.0602   8.1413   8.2812
     8.3067   8.4476   8.6737   8.7164   8.7706   9.0987   9.1993   9.3459
     9.3822   9.6275   9.6602   9.7131   9.7929   9.9234   9.9349   9.9623
     9.9675  10.0268  10.1094  10.1109  10.1867  10.2677  10.2685  10.3613
    10.3725  11.3692  11.7143  11.7180  12.0316  13.6262  14.9912  15.1642
    17.1893  17.3012  17.9547  18.3252  18.3553  18.4934  18.5054  18.6107
    18.8237  18.8306  18.9700  19.0805  19.2100  19.8314  19.8617  20.5043
    20.6634  20.6893  20.7858  20.7950  20.8270  20.8730  20.9093  20.9411

     occupation numbers 
     1.0000   1.0000   1.0000   1.0000   1.0000   1.0000   1.0000   1.0000
     1.0000   1.0000   1.0000   1.0000   1.0000   1.0000   1.0000   1.0000
     1.0000   1.0000   1.0000   1.0000   1.0000   1.0000   1.0000   1.0000
     1.0000   1.0000   1.0000   1.0000   1.0000   1.0000   1.0000   1.0000
     1.0000   1.0000   1.0000   1.0000   1.0000   1.0000   1.0000   1.0000
     1.0000   1.0000   1.0000   1.0000   1.0000   1.0000   1.0000   1.0000
     1.0000   1.0000   1.0000   1.0000   1.0000   1.0000   1.0000   1.0000
     1.0000   1.0000   1.0000   1.0000   1.0000   1.0000   1.0000   1.0000
     1.0000   1.0000   1.0000   1.0000   1.0000   1.0000   1.0000   1.0000
     1.0000   1.0000   1.0000   1.0000   1.0000   1.0000   1.0000   1.0000
     1.0000   1.0000   1.0000   1.0000   1.0000   1.0000   1.0000   1.0000
     1.0000   1.0000   1.0000   1.0000   1.0000   1.0000   1.0000   1.0000
     1.0000   1.0000   1.0000   1.0000   1.0000   1.0000   1.0000   1.0000
     1.0000   1.0000   1.0000   1.0000   1.0000   1.0000   1.0000   1.0000
     1.0000   1.0000   1.0000   1.0000   1.0000   1.0000   1.0000   1.0000
     1.0000   1.0000   1.0000   1.0000   1.0000   1.0000   1.0000   0.0000
     0.0000   0.0000   0.0000   0.0000   0.0000   0.0000   0.0000   0.0000
     0.0000   0.0000   0.0000   0.0000   0.0000   0.0000   0.0000   0.0000
     0.0000   0.0000   0.0000   0.0000   0.0000   0.0000   0.0000   0.0000

          k = 0.0000 0.3333 0.3333 ( 24236 PWs)   bands (ev):

    -8.1207  -7.3881  -7.2230  -6.5714  -5.9577  -5.6632  -5.3302  -5.0042
    -4.9892  -4.8412  -4.4910  -4.2520  -4.2168  -3.9336  -3.5354  -3.5062
    -2.7726  -2.3693  -2.3286  -2.3158  -2.1946  -2.1861  -2.0416  -1.8794
    -1.4850  -1.3155  -1.0912  -0.9163  -0.5349  -0.0259   0.0617   0.1324
     0.1824   0.4828   0.6913   1.1903   1.2082   1.3175   1.3873   1.3995
     1.4536   1.4636   1.9476   2.0647   2.1378   2.4056   2.7278   2.8250
     2.9740   3.5135   3.6546   3.7009   3.7798   3.8195   3.9747   4.0468
     4.1277   4.5510   4.6775   4.8250   5.0402   5.0457   5.1456   5.3006
     5.3442   5.5932   5.6564   5.6921   5.7506   5.9749   6.0294   6.0798
     6.1447   6.2381   6.2799   6.4902   6.5471   6.6040   6.6584   6.8589
     6.9210   6.9515   7.0447   7.0507   7.2320   7.2924   7.4987   7.7056
     7.9380   7.9480   8.0732   8.0984   8.1210   8.2263   8.2667   8.3381
     8.3507   8.4070   8.5342   8.6439   8.6983   8.7050   8.8435   8.8995
     9.0832   9.2058   9.2430   9.3132   9.4708   9.4793   9.5776   9.6416
     9.7097   9.7908   9.9108  10.0462  10.0545  10.1337  10.4399  10.7579
    11.0155  11.2143  11.5494  11.8560  12.2318  13.4271  14.9246  15.2305
    18.0864  18.1934  18.2241  18.3055  18.3621  18.8360  18.8545  19.0020
    19.1811  19.2283  19.4410  19.4800  19.6999  19.8200  19.9717  20.0219
    20.1983  20.4493  20.4816  20.5050  20.5653  20.6022  20.6148  20.6535

     occupation numbers 
     1.0000   1.0000   1.0000   1.0000   1.0000   1.0000   1.0000   1.0000
     1.0000   1.0000   1.0000   1.0000   1.0000   1.0000   1.0000   1.0000
     1.0000   1.0000   1.0000   1.0000   1.0000   1.0000   1.0000   1.0000
     1.0000   1.0000   1.0000   1.0000   1.0000   1.0000   1.0000   1.0000
     1.0000   1.0000   1.0000   1.0000   1.0000   1.0000   1.0000   1.0000
     1.0000   1.0000   1.0000   1.0000   1.0000   1.0000   1.0000   1.0000
     1.0000   1.0000   1.0000   1.0000   1.0000   1.0000   1.0000   1.0000
     1.0000   1.0000   1.0000   1.0000   1.0000   1.0000   1.0000   1.0000
     1.0000   1.0000   1.0000   1.0000   1.0000   1.0000   1.0000   1.0000
     1.0000   1.0000   1.0000   1.0000   1.0000   1.0000   1.0000   1.0000
     1.0000   1.0000   1.0000   1.0000   1.0000   1.0000   1.0000   1.0000
     1.0000   1.0000   1.0000   1.0000   1.0000   1.0000   1.0000   1.0000
     1.0000   1.0000   1.0000   1.0000   1.0000   1.0000   1.0000   1.0000
     1.0000   1.0000   1.0000   1.0000   1.0000   1.0000   1.0000   1.0000
     1.0000   1.0000   1.0000   1.0000   1.0000   1.0000   1.0000   1.0000
     1.0000   1.0000   1.0000   1.0000   1.0000   1.0000   1.0000   0.0000
     0.0000   0.0000   0.0000   0.0000   0.0000   0.0000   0.0000   0.0000
     0.0000   0.0000   0.0000   0.0000   0.0000   0.0000   0.0000   0.0000
     0.0000   0.0000   0.0000   0.0000   0.0000   0.0000   0.0000   0.0000

          k = 0.3333 0.3333 0.3333 ( 24303 PWs)   bands (ev):

    -7.9283  -7.2169  -6.9747  -6.9747  -6.2952  -6.2165  -6.2165  -5.4509
    -4.1994  -4.0264  -4.0264  -3.5273  -3.3823  -3.3823  -3.3236  -3.3236
    -3.2900  -2.9004  -2.6675  -2.6675  -1.9444  -1.9047  -1.9047  -1.5350
    -1.4484  -1.4484  -1.4003  -1.4003  -1.3236  -1.2191  -1.2191   0.0730
     0.8442   0.8442   0.9787   0.9947   0.9947   1.3054   1.8418   1.8418
     1.8749   1.9079   2.0075   2.0075   2.5988   2.5988   2.6005   2.7077
     2.7362   2.7362   3.1466   3.1466   3.5397   4.0817   4.2934   4.2934
     4.8089   4.9264   4.9264   4.9662   5.0917   5.0917   5.1529   5.3086
     5.3086   5.3958   5.5123   5.5123   5.5777   5.5777   5.6264   6.3866
     6.7249   6.7249   6.9670   7.0047   7.0047   7.0069   7.0969   7.0969
     7.1989   7.1989   7.2516   7.2540   7.2671   7.2671   7.3690   7.3690
     7.3828   7.4985   7.7293   7.7293   7.9230   7.9230   7.9556   8.0059
     8.1882   8.1882   8.2918   8.3026   8.3026   8.4435   8.4503   8.4503
     8.6856   8.6856   8.8574   9.0783   9.1089   9.5417   9.5417   9.7897
     9.7897  10.4895  10.4895  10.5177  10.5810  10.9560  10.9560  11.2625
    11.2625  11.3085  11.4806  11.6684  11.6684  13.3410  15.2239  15.2239
    18.1602  18.2434  18.2434  18.4717  18.6408  18.6408  19.2537  19.3985
    19.3985  19.5469  19.5469  19.5740  19.6317  19.6317  19.6848  19.7419
    19.7419  19.8624  19.9209  19.9210  20.0071  20.0074  20.0269  20.2133

     occupation numbers 
     1.0000   1.0000   1.0000   1.0000   1.0000   1.0000   1.0000   1.0000
     1.0000   1.0000   1.0000   1.0000   1.0000   1.0000   1.0000   1.0000
     1.0000   1.0000   1.0000   1.0000   1.0000   1.0000   1.0000   1.0000
     1.0000   1.0000   1.0000   1.0000   1.0000   1.0000   1.0000   1.0000
     1.0000   1.0000   1.0000   1.0000   1.0000   1.0000   1.0000   1.0000
     1.0000   1.0000   1.0000   1.0000   1.0000   1.0000   1.0000   1.0000
     1.0000   1.0000   1.0000   1.0000   1.0000   1.0000   1.0000   1.0000
     1.0000   1.0000   1.0000   1.0000   1.0000   1.0000   1.0000   1.0000
     1.0000   1.0000   1.0000   1.0000   1.0000   1.0000   1.0000   1.0000
     1.0000   1.0000   1.0000   1.0000   1.0000   1.0000   1.0000   1.0000
     1.0000   1.0000   1.0000   1.0000   1.0000   1.0000   1.0000   1.0000
     1.0000   1.0000   1.0000   1.0000   1.0000   1.0000   1.0000   1.0000
     1.0000   1.0000   1.0000   1.0000   1.0000   1.0000   1.0000   1.0000
     1.0000   1.0000   1.0000   1.0000   1.0000   1.0000   1.0000   1.0000
     1.0000   1.0000   1.0000   1.0000   1.0000   1.0000   1.0000   1.0000
     1.0000   1.0000   1.0000   1.0000   1.0000   1.0000   0.0000   0.0000
     0.0000   0.0000   0.0000   0.0000   0.0000   0.0000   0.0000   0.0000
     0.0000   0.0000   0.0000   0.0000   0.0000   0.0000   0.0000   0.0000
     0.0000   0.0000   0.0000   0.0000   0.0000   0.0000   0.0000   0.0000

          k =-0.3333 0.0000 0.3333 ( 24236 PWs)   bands (ev):

    -8.1067  -7.5041  -7.0989  -6.5575  -5.9979  -5.6691  -5.3652  -5.0287
    -4.9267  -4.7599  -4.5124  -4.2941  -4.2247  -4.0397  -3.5841  -3.3293
    -2.7638  -2.4025  -2.3602  -2.2877  -2.1921  -2.1662  -2.0940  -1.6553
    -1.6355  -1.3088  -1.1116  -0.9858  -0.5859   0.0107   0.0774   0.1182
     0.2739   0.4966   0.8844   1.0562   1.2090   1.2257   1.2544   1.3982
     1.4851   1.5812   1.8671   1.9071   2.1378   2.5922   2.6823   2.8676
     2.9510   3.5053   3.6555   3.7137   3.7889   3.8935   4.0268   4.1162
     4.1777   4.3987   4.6221   4.8123   4.9695   5.0205   5.1859   5.2520
     5.4238   5.5688   5.6483   5.6917   5.7981   6.0363   6.0840   6.1359
     6.1802   6.2225   6.2731   6.4352   6.4773   6.6205   6.6430   6.8176
     6.8923   6.9678   7.0159   7.0981   7.2350   7.3900   7.5081   7.6799
     7.8513   7.8947   7.9691   8.0849   8.1794   8.2145   8.2611   8.2875
     8.3776   8.4372   8.5533   8.5939   8.7381   8.7533   8.8957   8.9579
     9.0796   9.1400   9.2333   9.3237   9.4523   9.4983   9.5211   9.6619
     9.7357   9.7533   9.9431  10.0298  10.0747  10.0950  10.5097  10.8825
    10.9810  11.1551  11.5086  11.7635  12.2353  13.6830  14.8403  15.1228
    18.0632  18.2018  18.2647  18.3145  18.3669  18.8036  18.9229  19.0961
    19.1531  19.2807  19.3537  19.4897  19.6970  19.8410  19.8949  20.0312
    20.2507  20.3668  20.4303  20.5236  20.5591  20.5989  20.6397  20.6799

     occupation numbers 
     1.0000   1.0000   1.0000   1.0000   1.0000   1.0000   1.0000   1.0000
     1.0000   1.0000   1.0000   1.0000   1.0000   1.0000   1.0000   1.0000
     1.0000   1.0000   1.0000   1.0000   1.0000   1.0000   1.0000   1.0000
     1.0000   1.0000   1.0000   1.0000   1.0000   1.0000   1.0000   1.0000
     1.0000   1.0000   1.0000   1.0000   1.0000   1.0000   1.0000   1.0000
     1.0000   1.0000   1.0000   1.0000   1.0000   1.0000   1.0000   1.0000
     1.0000   1.0000   1.0000   1.0000   1.0000   1.0000   1.0000   1.0000
     1.0000   1.0000   1.0000   1.0000   1.0000   1.0000   1.0000   1.0000
     1.0000   1.0000   1.0000   1.0000   1.0000   1.0000   1.0000   1.0000
     1.0000   1.0000   1.0000   1.0000   1.0000   1.0000   1.0000   1.0000
     1.0000   1.0000   1.0000   1.0000   1.0000   1.0000   1.0000   1.0000
     1.0000   1.0000   1.0000   1.0000   1.0000   1.0000   1.0000   1.0000
     1.0000   1.0000   1.0000   1.0000   1.0000   1.0000   1.0000   1.0000
     1.0000   1.0000   1.0000   1.0000   1.0000   1.0000   1.0000   1.0000
     1.0000   1.0000   1.0000   1.0000   1.0000   1.0000   1.0000   1.0000
     1.0000   1.0000   1.0000   1.0000   1.0000   1.0000   1.0000   0.5000
     0.0000   0.0000   0.0000   0.0000   0.0000   0.0000   0.0000   0.0000
     0.0000   0.0000   0.0000   0.0000   0.0000   0.0000   0.0000   0.0000
     0.0000   0.0000   0.0000   0.0000   0.0000   0.0000   0.0000   0.0000

          k = 0.3333-0.3333 0.3333 ( 24303 PWs)   bands (ev):

    -7.9019  -7.3565  -6.9751  -6.8229  -6.4651  -6.2154  -5.9811  -5.4894
    -4.4857  -4.0284  -3.9335  -3.7059  -3.4070  -3.3587  -3.3122  -3.2148
    -3.0733  -2.8844  -2.6870  -2.4237  -2.0609  -1.8838  -1.8504  -1.7152
    -1.4862  -1.4592  -1.4207  -1.3550  -1.3541  -1.2605  -1.1719  -0.0512
     0.7566   0.8810   0.9644   0.9985   1.0640   1.4213   1.7437   1.7827
     1.8602   1.9446   2.0459   2.2439   2.5793   2.6162   2.6878   2.7058
     2.7249   2.7818   2.9224   3.1794   3.5117   3.9952   4.2379   4.3145
     4.8247   4.8272   4.8590   5.0130   5.0265   5.0717   5.1987   5.2583
     5.2848   5.4402   5.4452   5.5037   5.6855   5.7758   5.8312   6.4618
     6.7002   6.7592   6.9240   6.9313   6.9715   7.0524   7.0735   7.0976
     7.1670   7.1913   7.2363   7.2663   7.2719   7.3202   7.3343   7.3556
     7.3812   7.4626   7.7379   7.7455   7.8280   7.9299   7.9540   7.9643
     8.1328   8.1587   8.2728   8.2886   8.3772   8.3914   8.4128   8.4928
     8.7030   8.7340   8.9702   8.9857   9.1212   9.5331   9.5949   9.6971
     9.8873  10.4062  10.5160  10.5246  10.5559  10.9343  10.9460  11.2063
    11.2275  11.2980  11.4518  11.7225  11.7403  13.7084  14.9082  15.2120
    18.1255  18.2588  18.3414  18.5443  18.6582  18.7259  19.2119  19.3966
    19.4330  19.5108  19.5349  19.5537  19.6089  19.6294  19.6624  19.7306
    19.7425  19.7943  19.9179  19.9235  19.9932  19.9991  20.0436  20.1548

     occupation numbers 
     1.0000   1.0000   1.0000   1.0000   1.0000   1.0000   1.0000   1.0000
     1.0000   1.0000   1.0000   1.0000   1.0000   1.0000   1.0000   1.0000
     1.0000   1.0000   1.0000   1.0000   1.0000   1.0000   1.0000   1.0000
     1.0000   1.0000   1.0000   1.0000   1.0000   1.0000   1.0000   1.0000
     1.0000   1.0000   1.0000   1.0000   1.0000   1.0000   1.0000   1.0000
     1.0000   1.0000   1.0000   1.0000   1.0000   1.0000   1.0000   1.0000
     1.0000   1.0000   1.0000   1.0000   1.0000   1.0000   1.0000   1.0000
     1.0000   1.0000   1.0000   1.0000   1.0000   1.0000   1.0000   1.0000
     1.0000   1.0000   1.0000   1.0000   1.0000   1.0000   1.0000   1.0000
     1.0000   1.0000   1.0000   1.0000   1.0000   1.0000   1.0000   1.0000
     1.0000   1.0000   1.0000   1.0000   1.0000   1.0000   1.0000   1.0000
     1.0000   1.0000   1.0000   1.0000   1.0000   1.0000   1.0000   1.0000
     1.0000   1.0000   1.0000   1.0000   1.0000   1.0000   1.0000   1.0000
     1.0000   1.0000   1.0000   1.0000   1.0000   1.0000   1.0000   1.0000
     1.0000   1.0000   1.0000   1.0000   1.0000   1.0000   1.0000   1.0000
     1.0000   1.0000   1.0000   1.0000   1.0000   1.0000   1.0000   0.0000
     0.0000   0.0000   0.0000   0.0000   0.0000   0.0000   0.0000   0.0000
     0.0000   0.0000   0.0000   0.0000   0.0000   0.0000   0.0000   0.0000
     0.0000   0.0000   0.0000   0.0000   0.0000   0.0000   0.0000   0.0000

 ------ SPIN DOWN ----------


          k = 0.0000 0.0000 0.0000 ( 24207 PWs)   bands (ev):

    -8.5623  -6.9775  -6.2746  -6.2746  -6.1613  -6.1613  -5.8850  -4.9386
    -4.1350  -4.1350  -4.1067  -4.1067  -4.0249  -4.0249  -3.9935  -3.9389
    -3.8738  -3.8738  -3.3604  -2.9694  -2.6758  -2.6758  -2.0863  -0.3811
    -0.3811  -0.3529  -0.3201  -0.1024   0.1658   0.1658   0.2790   0.2790
     0.3515   0.5898   0.8032   0.8032   0.9647   0.9647   0.9994   1.0114
     1.0114   1.0415   1.3280   1.3280   3.0482   3.8908   3.8908   4.0208
     4.2069   4.2103   4.2103   4.2169   4.2522   4.2522   4.4099   4.4099
     4.4614   4.4614   4.5745   4.6334   4.6334   4.6368   4.6478   4.7346
     4.7346   4.8677   4.9279   4.9279   5.0420   5.2016   5.2016   5.2600
     5.3210   5.3210   5.3601   5.3939   5.3939   6.0032   6.0032   6.0264
     6.5904   6.5904   6.7061   6.9687   7.0115   7.0115   7.5081   8.2961
     8.2961   8.3640   8.4385   8.4385   8.6159   8.6159   8.7705   8.7854
     8.7856   8.7856   8.8405   8.8405   8.8727   9.2289   9.2352   9.2352
     9.6587   9.6587   9.8626   9.8725   9.8725   9.8848   9.9115   9.9399
     9.9399   9.9415   9.9689   9.9689  10.0721  10.0721  10.2214  10.2214
    10.2888  11.0525  12.2515  12.4406  12.4406  13.8956  15.3014  15.3014
    17.3121  17.3355  17.3355  17.4990  17.5180  17.5180  17.8180  17.8771
    17.8771  17.9634  17.9634  18.3433  18.8940  18.8940  18.9250  20.6339
    20.7608  20.7608  20.8034  20.8871  20.8871  20.9640  20.9641  21.0006

     occupation numbers 
     1.0000   1.0000   1.0000   1.0000   1.0000   1.0000   1.0000   1.0000
     1.0000   1.0000   1.0000   1.0000   1.0000   1.0000   1.0000   1.0000
     1.0000   1.0000   1.0000   1.0000   1.0000   1.0000   1.0000   1.0000
     1.0000   1.0000   1.0000   1.0000   1.0000   1.0000   1.0000   1.0000
     1.0000   1.0000   1.0000   1.0000   1.0000   1.0000   1.0000   1.0000
     1.0000   1.0000   1.0000   1.0000   1.0000   1.0000   1.0000   1.0000
     1.0000   1.0000   1.0000   1.0000   1.0000   1.0000   1.0000   1.0000
     1.0000   1.0000   1.0000   1.0000   1.0000   1.0000   1.0000   1.0000
     1.0000   1.0000   1.0000   1.0000   1.0000   1.0000   1.0000   1.0000
     1.0000   1.0000   1.0000   1.0000   1.0000   1.0000   1.0000   1.0000
     1.0000   1.0000   1.0000   1.0000   1.0000   1.0000   1.0000   1.0000
     1.0000   1.0000   1.0000   1.0000   1.0000   1.0000   1.0000   1.0000
     1.0000   1.0000   1.0000   1.0000   1.0000   1.0000   1.0000   1.0000
     1.0000   1.0000   1.0000   1.0000   1.0000   1.0000   1.0000   1.0000
     1.0000   1.0000   1.0000   1.0000   1.0000   1.0000   1.0000   1.0000
     1.0000   1.0000   1.0000   1.0000   1.0000   1.0000   0.0000   0.0000
     0.0000   0.0000   0.0000   0.0000   0.0000   0.0000   0.0000   0.0000
     0.0000   0.0000   0.0000   0.0000   0.0000   0.0000   0.0000   0.0000
     0.0000   0.0000   0.0000   0.0000   0.0000   0.0000   0.0000   0.0000

          k = 0.0000 0.0000 0.3333 ( 24280 PWs)   bands (ev):

    -8.3337  -7.5631  -6.5756  -6.0294  -5.9211  -5.8171  -5.4930  -5.2885
    -5.1652  -4.9761  -4.5116  -4.1272  -3.8010  -3.7904  -3.6804  -3.4413
    -3.1967  -3.1483  -2.9252  -2.6021  -2.4999  -2.3794  -2.3199  -1.7714
    -0.8399  -0.6881  -0.5765  -0.3392   0.1739   0.2585   0.3702   0.4061
     0.4774   0.5628   0.5752   0.6636   0.7258   0.7431   0.9895   1.4779
     1.9866   2.0145   2.1599   2.2278   2.4220   2.4822   2.4895   2.7495
     2.9479   3.0034   3.1681   3.1764   3.8928   3.9686   4.0567   4.0687
     4.2975   4.3693   4.5082   4.5544   5.0762   5.1070   5.1422   5.2073
     5.2140   5.5884   5.6158   5.7166   5.7534   6.0658   6.1089   6.1877
     6.1943   6.3263   6.3959   6.4599   6.5122   6.6176   6.6250   6.7466
     6.7691   6.8878   6.9125   6.9389   7.1496   7.1582   7.1836   7.2693
     7.4112   7.4816   7.6763   7.7743   7.8253   8.0602   8.1414   8.2812
     8.3067   8.4476   8.6737   8.7165   8.7706   9.0987   9.1993   9.3460
     9.3822   9.6276   9.6602   9.7131   9.7929   9.9234   9.9349   9.9623
     9.9676  10.0268  10.1094  10.1109  10.1868  10.2677  10.2686  10.3614
    10.3725  11.3697  11.7143  11.7180  12.0317  13.6270  14.9911  15.1641
    17.1892  17.3011  17.9548  18.3252  18.3553  18.4934  18.5054  18.6107
    18.8238  18.8305  18.9699  19.0804  19.2100  19.8316  19.8618  20.5045
    20.6634  20.6893  20.7859  20.7950  20.8270  20.8730  20.9094  20.9412

     occupation numbers 
     1.0000   1.0000   1.0000   1.0000   1.0000   1.0000   1.0000   1.0000
     1.0000   1.0000   1.0000   1.0000   1.0000   1.0000   1.0000   1.0000
     1.0000   1.0000   1.0000   1.0000   1.0000   1.0000   1.0000   1.0000
     1.0000   1.0000   1.0000   1.0000   1.0000   1.0000   1.0000   1.0000
     1.0000   1.0000   1.0000   1.0000   1.0000   1.0000   1.0000   1.0000
     1.0000   1.0000   1.0000   1.0000   1.0000   1.0000   1.0000   1.0000
     1.0000   1.0000   1.0000   1.0000   1.0000   1.0000   1.0000   1.0000
     1.0000   1.0000   1.0000   1.0000   1.0000   1.0000   1.0000   1.0000
     1.0000   1.0000   1.0000   1.0000   1.0000   1.0000   1.0000   1.0000
     1.0000   1.0000   1.0000   1.0000   1.0000   1.0000   1.0000   1.0000
     1.0000   1.0000   1.0000   1.0000   1.0000   1.0000   1.0000   1.0000
     1.0000   1.0000   1.0000   1.0000   1.0000   1.0000   1.0000   1.0000
     1.0000   1.0000   1.0000   1.0000   1.0000   1.0000   1.0000   1.0000
     1.0000   1.0000   1.0000   1.0000   1.0000   1.0000   1.0000   1.0000
     1.0000   1.0000   1.0000   1.0000   1.0000   1.0000   1.0000   1.0000
     1.0000   1.0000   1.0000   1.0000   1.0000   1.0000   1.0000   0.0000
     0.0000   0.0000   0.0000   0.0000   0.0000   0.0000   0.0000   0.0000
     0.0000   0.0000   0.0000   0.0000   0.0000   0.0000   0.0000   0.0000
     0.0000   0.0000   0.0000   0.0000   0.0000   0.0000   0.0000   0.0000

          k = 0.0000 0.3333 0.3333 ( 24236 PWs)   bands (ev):

    -8.1207  -7.3880  -7.2231  -6.5714  -5.9576  -5.6633  -5.3301  -5.0044
    -4.9893  -4.8414  -4.4911  -4.2521  -4.2169  -3.9337  -3.5354  -3.5064
    -2.7725  -2.3695  -2.3288  -2.3159  -2.1947  -2.1862  -2.0417  -1.8795
    -1.4851  -1.3156  -1.0912  -0.9164  -0.5349  -0.0259   0.0616   0.1323
     0.1823   0.4827   0.6912   1.1902   1.2081   1.3174   1.3872   1.3994
     1.4536   1.4636   1.9475   2.0646   2.1378   2.4056   2.7277   2.8249
     2.9740   3.5134   3.6545   3.7008   3.7797   3.8195   3.9746   4.0468
     4.1276   4.5509   4.6774   4.8250   5.0401   5.0457   5.1455   5.3006
     5.3442   5.5931   5.6563   5.6921   5.7505   5.9749   6.0294   6.0797
     6.1446   6.2380   6.2799   6.4902   6.5470   6.6039   6.6583   6.8589
     6.9210   6.9515   7.0447   7.0506   7.2320   7.2924   7.4987   7.7056
     7.9379   7.9480   8.0732   8.0984   8.1210   8.2263   8.2667   8.3382
     8.3506   8.4070   8.5342   8.6439   8.6983   8.7050   8.8435   8.8995
     9.0832   9.2058   9.2430   9.3132   9.4708   9.4793   9.5776   9.6416
     9.7097   9.7908   9.9108  10.0463  10.0545  10.1337  10.4400  10.7581
    11.0155  11.2144  11.5494  11.8563  12.2319  13.4279  14.9245  15.2305
    18.0864  18.1933  18.2241  18.3055  18.3621  18.8361  18.8546  19.0021
    19.1811  19.2284  19.4410  19.4800  19.6999  19.8200  19.9717  20.0221
    20.1984  20.4494  20.4817  20.5051  20.5654  20.6023  20.6148  20.6535

     occupation numbers 
     1.0000   1.0000   1.0000   1.0000   1.0000   1.0000   1.0000   1.0000
     1.0000   1.0000   1.0000   1.0000   1.0000   1.0000   1.0000   1.0000
     1.0000   1.0000   1.0000   1.0000   1.0000   1.0000   1.0000   1.0000
     1.0000   1.0000   1.0000   1.0000   1.0000   1.0000   1.0000   1.0000
     1.0000   1.0000   1.0000   1.0000   1.0000   1.0000   1.0000   1.0000
     1.0000   1.0000   1.0000   1.0000   1.0000   1.0000   1.0000   1.0000
     1.0000   1.0000   1.0000   1.0000   1.0000   1.0000   1.0000   1.0000
     1.0000   1.0000   1.0000   1.0000   1.0000   1.0000   1.0000   1.0000
     1.0000   1.0000   1.0000   1.0000   1.0000   1.0000   1.0000   1.0000
     1.0000   1.0000   1.0000   1.0000   1.0000   1.0000   1.0000   1.0000
     1.0000   1.0000   1.0000   1.0000   1.0000   1.0000   1.0000   1.0000
     1.0000   1.0000   1.0000   1.0000   1.0000   1.0000   1.0000   1.0000
     1.0000   1.0000   1.0000   1.0000   1.0000   1.0000   1.0000   1.0000
     1.0000   1.0000   1.0000   1.0000   1.0000   1.0000   1.0000   1.0000
     1.0000   1.0000   1.0000   1.0000   1.0000   1.0000   1.0000   1.0000
     1.0000   1.0000   1.0000   1.0000   1.0000   1.0000   1.0000   0.0000
     0.0000   0.0000   0.0000   0.0000   0.0000   0.0000   0.0000   0.0000
     0.0000   0.0000   0.0000   0.0000   0.0000   0.0000   0.0000   0.0000
     0.0000   0.0000   0.0000   0.0000   0.0000   0.0000   0.0000   0.0000

          k = 0.3333 0.3333 0.3333 ( 24303 PWs)   bands (ev):

    -7.9281  -7.2167  -6.9749  -6.9749  -6.2951  -6.2167  -6.2167  -5.4509
    -4.1991  -4.0266  -4.0266  -3.5271  -3.3825  -3.3825  -3.3238  -3.3238
    -3.2901  -2.9005  -2.6676  -2.6676  -1.9444  -1.9049  -1.9049  -1.5351
    -1.4486  -1.4486  -1.4004  -1.4004  -1.3237  -1.2191  -1.2191   0.0730
     0.8441   0.8441   0.9786   0.9946   0.9946   1.3053   1.8417   1.8417
     1.8748   1.9079   2.0074   2.0074   2.5987   2.5987   2.6004   2.7077
     2.7361   2.7361   3.1465   3.1465   3.5397   4.0817   4.2933   4.2933
     4.8088   4.9263   4.9263   4.9661   5.0916   5.0916   5.1528   5.3086
     5.3086   5.3957   5.5122   5.5122   5.5778   5.5778   5.6264   6.3866
     6.7251   6.7251   6.9669   7.0046   7.0046   7.0069   7.0969   7.0969
     7.1988   7.1988   7.2515   7.2540   7.2670   7.2670   7.3689   7.3689
     7.3827   7.4985   7.7293   7.7293   7.9229   7.9229   7.9556   8.0059
     8.1882   8.1882   8.2918   8.3026   8.3026   8.4434   8.4503   8.4503
     8.6856   8.6856   8.8576   9.0783   9.1089   9.5418   9.5418   9.7897
     9.7897  10.4895  10.4895  10.5177  10.5811  10.9561  10.9561  11.2625
    11.2625  11.3086  11.4808  11.6685  11.6685  13.3419  15.2238  15.2238
    18.1603  18.2433  18.2433  18.4717  18.6407  18.6407  19.2539  19.3985
    19.3985  19.5469  19.5469  19.5740  19.6317  19.6317  19.6848  19.7419
    19.7419  19.8623  19.9210  19.9211  20.0071  20.0075  20.0269  20.1699

     occupation numbers 
     1.0000   1.0000   1.0000   1.0000   1.0000   1.0000   1.0000   1.0000
     1.0000   1.0000   1.0000   1.0000   1.0000   1.0000   1.0000   1.0000
     1.0000   1.0000   1.0000   1.0000   1.0000   1.0000   1.0000   1.0000
     1.0000   1.0000   1.0000   1.0000   1.0000   1.0000   1.0000   1.0000
     1.0000   1.0000   1.0000   1.0000   1.0000   1.0000   1.0000   1.0000
     1.0000   1.0000   1.0000   1.0000   1.0000   1.0000   1.0000   1.0000
     1.0000   1.0000   1.0000   1.0000   1.0000   1.0000   1.0000   1.0000
     1.0000   1.0000   1.0000   1.0000   1.0000   1.0000   1.0000   1.0000
     1.0000   1.0000   1.0000   1.0000   1.0000   1.0000   1.0000   1.0000
     1.0000   1.0000   1.0000   1.0000   1.0000   1.0000   1.0000   1.0000
     1.0000   1.0000   1.0000   1.0000   1.0000   1.0000   1.0000   1.0000
     1.0000   1.0000   1.0000   1.0000   1.0000   1.0000   1.0000   1.0000
     1.0000   1.0000   1.0000   1.0000   1.0000   1.0000   1.0000   1.0000
     1.0000   1.0000   1.0000   1.0000   1.0000   1.0000   1.0000   1.0000
     1.0000   1.0000   1.0000   1.0000   1.0000   1.0000   1.0000   1.0000
     1.0000   1.0000   1.0000   1.0000   1.0000   1.0000   0.0000   0.0000
     0.0000   0.0000   0.0000   0.0000   0.0000   0.0000   0.0000   0.0000
     0.0000   0.0000   0.0000   0.0000   0.0000   0.0000   0.0000   0.0000
     0.0000   0.0000   0.0000   0.0000   0.0000   0.0000   0.0000   0.0000

          k =-0.3333 0.0000 0.3333 ( 24236 PWs)   bands (ev):

    -8.1067  -7.5040  -7.0991  -6.5574  -5.9978  -5.6693  -5.3652  -5.0288
    -4.9268  -4.7600  -4.5124  -4.2942  -4.2248  -4.0398  -3.5841  -3.3295
    -2.7637  -2.4027  -2.3603  -2.2878  -2.1922  -2.1663  -2.0941  -1.6554
    -1.6356  -1.3089  -1.1116  -0.9860  -0.5860   0.0106   0.0773   0.1181
     0.2739   0.4965   0.8844   1.0562   1.2089   1.2255   1.2543   1.3981
     1.4850   1.5811   1.8671   1.9070   2.1377   2.5921   2.6822   2.8675
     2.9510   3.5053   3.6554   3.7136   3.7888   3.8934   4.0267   4.1161
     4.1776   4.3987   4.6220   4.8123   4.9694   5.0206   5.1858   5.2520
     5.4238   5.5687   5.6482   5.6916   5.7981   6.0363   6.0839   6.1359
     6.1802   6.2225   6.2731   6.4352   6.4773   6.6204   6.6429   6.8176
     6.8922   6.9677   7.0159   7.0980   7.2350   7.3899   7.5081   7.6800
     7.8513   7.8946   7.9691   8.0849   8.1794   8.2145   8.2611   8.2875
     8.3775   8.4372   8.5533   8.5938   8.7381   8.7533   8.8958   8.9578
     9.0796   9.1400   9.2333   9.3237   9.4523   9.4983   9.5210   9.6619
     9.7357   9.7533   9.9431  10.0298  10.0747  10.0950  10.5097  10.8825
    10.9812  11.1553  11.5087  11.7639  12.2352  13.6837  14.8402  15.1228
    18.0632  18.2018  18.2646  18.3145  18.3668  18.8037  18.9229  19.0961
    19.1532  19.2808  19.3538  19.4897  19.6970  19.8410  19.8949  20.0313
    20.2509  20.3669  20.4304  20.5237  20.5592  20.5989  20.6397  20.6799

     occupation numbers 
     1.0000   1.0000   1.0000   1.0000   1.0000   1.0000   1.0000   1.0000
     1.0000   1.0000   1.0000   1.0000   1.0000   1.0000   1.0000   1.0000
     1.0000   1.0000   1.0000   1.0000   1.0000   1.0000   1.0000   1.0000
     1.0000   1.0000   1.0000   1.0000   1.0000   1.0000   1.0000   1.0000
     1.0000   1.0000   1.0000   1.0000   1.0000   1.0000   1.0000   1.0000
     1.0000   1.0000   1.0000   1.0000   1.0000   1.0000   1.0000   1.0000
     1.0000   1.0000   1.0000   1.0000   1.0000   1.0000   1.0000   1.0000
     1.0000   1.0000   1.0000   1.0000   1.0000   1.0000   1.0000   1.0000
     1.0000   1.0000   1.0000   1.0000   1.0000   1.0000   1.0000   1.0000
     1.0000   1.0000   1.0000   1.0000   1.0000   1.0000   1.0000   1.0000
     1.0000   1.0000   1.0000   1.0000   1.0000   1.0000   1.0000   1.0000
     1.0000   1.0000   1.0000   1.0000   1.0000   1.0000   1.0000   1.0000
     1.0000   1.0000   1.0000   1.0000   1.0000   1.0000   1.0000   1.0000
     1.0000   1.0000   1.0000   1.0000   1.0000   1.0000   1.0000   1.0000
     1.0000   1.0000   1.0000   1.0000   1.0000   1.0000   1.0000   1.0000
     1.0000   1.0000   1.0000   1.0000   1.0000   1.0000   1.0000   0.5000
     0.0000   0.0000   0.0000   0.0000   0.0000   0.0000   0.0000   0.0000
     0.0000   0.0000   0.0000   0.0000   0.0000   0.0000   0.0000   0.0000
     0.0000   0.0000   0.0000   0.0000   0.0000   0.0000   0.0000   0.0000

          k = 0.3333-0.3333 0.3333 ( 24303 PWs)   bands (ev):

    -7.9018  -7.3564  -6.9753  -6.8231  -6.4651  -6.2156  -5.9812  -5.4894
    -4.4855  -4.0286  -3.9336  -3.7059  -3.4072  -3.3588  -3.3123  -3.2149
    -3.0734  -2.8844  -2.6872  -2.4238  -2.0609  -1.8840  -1.8505  -1.7153
    -1.4863  -1.4594  -1.4208  -1.3551  -1.3542  -1.2606  -1.1720  -0.0512
     0.7565   0.8809   0.9643   0.9984   1.0639   1.4212   1.7436   1.7826
     1.8601   1.9445   2.0459   2.2438   2.5793   2.6162   2.6877   2.7057
     2.7248   2.7817   2.9224   3.1794   3.5116   3.9952   4.2378   4.3145
     4.8247   4.8272   4.8589   5.0129   5.0264   5.0717   5.1987   5.2583
     5.2848   5.4401   5.4452   5.5037   5.6854   5.7757   5.8311   6.4618
     6.7003   6.7592   6.9240   6.9312   6.9714   7.0524   7.0735   7.0975
     7.1670   7.1912   7.2363   7.2663   7.2719   7.3202   7.3343   7.3556
     7.3811   7.4626   7.7379   7.7455   7.8280   7.9299   7.9539   7.9642
     8.1328   8.1587   8.2728   8.2886   8.3772   8.3914   8.4128   8.4928
     8.7030   8.7340   8.9702   8.9857   9.1213   9.5331   9.5949   9.6973
     9.8873  10.4062  10.5160  10.5247  10.5560  10.9344  10.9461  11.2064
    11.2275  11.2980  11.4520  11.7225  11.7404  13.7092  14.9081  15.2119
    18.1256  18.2587  18.3413  18.5443  18.6582  18.7259  19.2120  19.3967
    19.4331  19.5107  19.5348  19.5537  19.6089  19.6294  19.6625  19.7306
    19.7425  19.7943  19.9179  19.9235  19.9932  19.9991  20.0436  20.1548

     occupation numbers 
     1.0000   1.0000   1.0000   1.0000   1.0000   1.0000   1.0000   1.0000
     1.0000   1.0000   1.0000   1.0000   1.0000   1.0000   1.0000   1.0000
     1.0000   1.0000   1.0000   1.0000   1.0000   1.0000   1.0000   1.0000
     1.0000   1.0000   1.0000   1.0000   1.0000   1.0000   1.0000   1.0000
     1.0000   1.0000   1.0000   1.0000   1.0000   1.0000   1.0000   1.0000
     1.0000   1.0000   1.0000   1.0000   1.0000   1.0000   1.0000   1.0000
     1.0000   1.0000   1.0000   1.0000   1.0000   1.0000   1.0000   1.0000
     1.0000   1.0000   1.0000   1.0000   1.0000   1.0000   1.0000   1.0000
     1.0000   1.0000   1.0000   1.0000   1.0000   1.0000   1.0000   1.0000
     1.0000   1.0000   1.0000   1.0000   1.0000   1.0000   1.0000   1.0000
     1.0000   1.0000   1.0000   1.0000   1.0000   1.0000   1.0000   1.0000
     1.0000   1.0000   1.0000   1.0000   1.0000   1.0000   1.0000   1.0000
     1.0000   1.0000   1.0000   1.0000   1.0000   1.0000   1.0000   1.0000
     1.0000   1.0000   1.0000   1.0000   1.0000   1.0000   1.0000   1.0000
     1.0000   1.0000   1.0000   1.0000   1.0000   1.0000   1.0000   1.0000
     1.0000   1.0000   1.0000   1.0000   1.0000   1.0000   1.0000   0.0000
     0.0000   0.0000   0.0000   0.0000   0.0000   0.0000   0.0000   0.0000
     0.0000   0.0000   0.0000   0.0000   0.0000   0.0000   0.0000   0.0000
     0.0000   0.0000   0.0000   0.0000   0.0000   0.0000   0.0000   0.0000

     the spin up/dw Fermi energies are    15.1247   15.1247 ev

!    total energy              =    -724.78001228 Ry
     Harris-Foulkes estimate   =    -724.78001187 Ry
     estimated scf accuracy    <       0.00000047 Ry

     The total energy is the sum of the following terms:

     one-electron contribution =     232.95446753 Ry
     hartree contribution      =      69.09719724 Ry
     xc contribution           =    -226.33832083 Ry
     ewald contribution        =    -800.49328329 Ry
     smearing contrib. (-TS)   =      -0.00007293 Ry

     total magnetization       =    -0.00 Bohr mag/cell
     absolute magnetization    =     0.00 Bohr mag/cell

     convergence has been achieved in   9 iterations

     Writing output data file di.save
 
     init_run     :      1.32s CPU      1.72s WALL (       1 calls)
     electrons    :     27.26s CPU     27.71s WALL (       1 calls)

     Called by init_run:
     wfcinit      :      0.75s CPU      0.83s WALL (       1 calls)
     wfcinit:atom :      0.01s CPU      0.01s WALL (       2 calls)
     wfcinit:wfcr :      0.71s CPU      0.77s WALL (       2 calls)
     potinit      :      0.09s CPU      0.10s WALL (       1 calls)

     Called by electrons:
     c_bands      :     25.60s CPU     26.00s WALL (       9 calls)
     sum_band     :      1.14s CPU      1.16s WALL (       9 calls)
     v_of_rho     :      0.38s CPU      0.39s WALL (      10 calls)
     v_h          :      0.01s CPU      0.01s WALL (      10 calls)
     v_xc         :      0.37s CPU      0.38s WALL (      10 calls)
     mix_rho      :      0.06s CPU      0.07s WALL (       9 calls)

     Called by c_bands:
     init_us_2    :      0.17s CPU      0.17s WALL (      38 calls)
     cegterg      :     21.81s CPU     22.17s WALL (      18 calls)

     Called by sum_band:

     Called by *egterg:
     h_psi        :      8.68s CPU      8.82s WALL (     129 calls)
     g_psi        :      0.05s CPU      0.05s WALL (     109 calls)
     cdiaghg      :      9.19s CPU      9.23s WALL (     127 calls)
     cegterg:over :      1.79s CPU      1.80s WALL (     109 calls)
     cegterg:upda :      1.25s CPU      1.26s WALL (     109 calls)
     cegterg:last :      0.46s CPU      0.46s WALL (      18 calls)

     Called by h_psi:
     h_psi:pot    :      8.59s CPU      8.72s WALL (     129 calls)
     h_psi:calbec :      1.90s CPU      1.93s WALL (     129 calls)
     vloc_psi     :      4.81s CPU      4.90s WALL (     129 calls)
     add_vuspsi   :      1.87s CPU      1.89s WALL (     129 calls)

     General routines
     calbec       :      1.90s CPU      1.93s WALL (     129 calls)
     fft          :      0.12s CPU      0.33s WALL (     207 calls)
     fftw         :      5.18s CPU      5.20s WALL (   18350 calls)
 
     Parallel routines
     fft_scatter  :      1.77s CPU      1.75s WALL (   18557 calls)
 
     PWSCF        :    31.42s CPU        34.84s WALL

 
   This run was terminated on:  10:25: 9  12May2020            

=------------------------------------------------------------------------------=
   JOB DONE.
=------------------------------------------------------------------------------=
