
     Program PWSCF v.6.1 (svn rev. 13369) starts on 28Apr2020 at 21: 3:15 

     This program is part of the open-source Quantum ESPRESSO suite
     for quantum simulation of materials; please cite
         "P. Giannozzi et al., J. Phys.:Condens. Matter 21 395502 (2009);
          URL http://www.quantum-espresso.org", 
     in publications or presentations arising from this work. More details at
     http://www.quantum-espresso.org/quote

     Parallel version (MPI), running on    64 processors
     K-points division:     npool     =       2
     R & G space division:  proc/nbgrp/npool/nimage =      32
     Reading input from relax.in

     Current dimensions of program PWSCF are:
     Max number of different atomic species (ntypx) = 10
     Max number of k-points (npk) =  40000
     Max angular momentum in pseudopotentials (lmaxx) =  3
     Message from routine setup:
     the system is metallic, specify occupations

     Subspace diagonalization in iterative solution of the eigenvalue problem:
     one sub-group per band group will be used
     scalapack distributed-memory algorithm (size of sub-group:  5*  5 procs)

 
     Parallelization info
     --------------------
     sticks:   dense  smooth     PW     G-vecs:    dense   smooth      PW
     Min         383     383     95                45549    45549    5695
     Max         384     384     96                45554    45554    5702
     Sum       12259   12259   3067              1457633  1457633  182351
 


     bravais-lattice index     =            0
     lattice parameter (alat)  =      28.4285  a.u.
     unit-cell volume          =   26452.5957 (a.u.)^3
     number of atoms/cell      =           71
     number of atomic types    =            2
     number of electrons       =       285.00 (up: 143.00, down: 142.00)
     number of Kohn-Sham states=          151
     kinetic-energy cutoff     =      55.0000  Ry
     charge density cutoff     =     220.0000  Ry
     convergence threshold     =      1.0E-08
     mixing beta               =       0.7000
     number of iterations used =            8  plain     mixing
     Exchange-correlation      = PBE ( 1  4  3  4 0 0)
     nstep                     =           50


     celldm(1)=  28.428530  celldm(2)=   0.000000  celldm(3)=   0.000000
     celldm(4)=   0.000000  celldm(5)=   0.000000  celldm(6)=   0.000000

     crystal axes: (cart. coord. in units of alat)
               a(1) = (   1.000000   0.000000   0.000000 )  
               a(2) = (  -0.500000   0.866025   0.000000 )  
               a(3) = (   0.000000   0.000000   1.329458 )  

     reciprocal axes: (cart. coord. in units 2 pi/alat)
               b(1) = (  1.000000  0.577350  0.000000 )  
               b(2) = (  0.000000  1.154701  0.000000 )  
               b(3) = (  0.000000  0.000000  0.752187 )  


     PseudoPot. # 1 for B  read from file:
     /home/tjsmart/Pseudo/B_ONCV_PBE-1.0.upf
     MD5 check sum: a9fd2462c33df863cd3ce8a66ea40380
     Pseudo is Norm-conserving, Zval =  3.0
     Generated using ONCVPSP code by D. R. Hamann
     Using radial grid of 1534 points,  4 beta functions with: 
                l(1) =   0
                l(2) =   0
                l(3) =   1
                l(4) =   1

     PseudoPot. # 2 for N  read from file:
     /home/tjsmart/Pseudo/N_ONCV_PBE-1.0.upf
     MD5 check sum: 09890da6b2972017450f7114a6086fad
     Pseudo is Norm-conserving, Zval =  5.0
     Generated using ONCVPSP code by D. R. Hamann
     Using radial grid of 1058 points,  4 beta functions with: 
                l(1) =   0
                l(2) =   0
                l(3) =   1
                l(4) =   1

     atomic species   valence    mass     pseudopotential
        B              3.00    10.81100     B ( 1.00)
        N              5.00    14.00670     N ( 1.00)

     Starting magnetic structure 
     atomic species   magnetization
        B            0.500
        N            0.500

      2 Sym. Ops. (no inversion) found



   Cartesian axes

     site n.     atom                  positions (alat units)
         1           B   tau(   1) = (   0.0847220   0.0481792   0.0000000  )
         2           B   tau(   2) = (   0.0016552   0.1915065   0.0000000  )
         3           B   tau(   3) = (  -0.0840700   0.3354423   0.0000000  )
         4           B   tau(   4) = (  -0.1697016   0.4797411   0.0000000  )
         5           B   tau(   5) = (  -0.2531040   0.6239657   0.0000000  )
         6           B   tau(   6) = (  -0.3347998   0.7684562   0.0000000  )
         7           B   tau(   7) = (   0.2505326   0.0503107   0.0000000  )
         8           B   tau(   8) = (   0.1708608   0.1982850   0.0000000  )
         9           B   tau(   9) = (   0.0817536   0.3373414   0.0000000  )
        10           B   tau(  10) = (  -0.0041807   0.4808770   0.0000000  )
        11           B   tau(  11) = (  -0.0868009   0.6252373   0.0000000  )
        12           B   tau(  12) = (  -0.1688315   0.7699815   0.0000000  )
        13           B   tau(  13) = (   0.4160703   0.0489591   0.0000000  )
        14           B   tau(  14) = (   0.3357626   0.1980947   0.0000000  )
        15           B   tau(  15) = (   0.2530533   0.3542664   0.0000000  )
        16           B   tau(  16) = (   0.1598302   0.4828258   0.0000000  )
        17           B   tau(  17) = (   0.0795559   0.6259404   0.0000000  )
        18           B   tau(  18) = (  -0.0022718   0.7698024   0.0000000  )
        19           B   tau(  19) = (   0.5841260   0.0456739   0.0000000  )
        20           B   tau(  20) = (   0.5048227   0.1892082   0.0000000  )
        21           N   tau(  21) = (   0.4225323   0.3312267   0.0000000  )
        22           B   tau(  22) = (   0.3177878   0.4664114   0.0000000  )
        23           B   tau(  23) = (   0.2467774   0.6232065   0.0000000  )
        24           B   tau(  24) = (   0.1655733   0.7678573   0.0000000  )
        25           B   tau(  25) = (   0.7514744   0.0445204   0.0000000  )
        26           B   tau(  26) = (   0.6701564   0.1882279   0.0000000  )
        27           B   tau(  27) = (   0.5866519   0.3309170   0.0000000  )
        28           B   tau(  28) = (   0.4944168   0.4729067   0.0000000  )
        29           B   tau(  29) = (   0.4117915   0.6155950   0.0000000  )
        30           B   tau(  30) = (   0.3330495   0.7654852   0.0000000  )
        31           B   tau(  31) = (   0.9178242   0.0452228   0.0000000  )
        32           B   tau(  32) = (   0.8353019   0.1897246   0.0000000  )
        33           B   tau(  33) = (   0.7505973   0.3339871   0.0000000  )
        34           B   tau(  34) = (   0.6637696   0.4779147   0.0000000  )
        35           B   tau(  35) = (   0.5798156   0.6205986   0.0000000  )
        36           B   tau(  36) = (   0.4987047   0.7652451   0.0000000  )
        37           N   tau(  37) = (   0.0009787   0.0949223   0.0000000  )
        38           N   tau(  38) = (  -0.0821736   0.2389754   0.0000000  )
        39           N   tau(  39) = (  -0.1675411   0.3832907   0.0000000  )
        40           N   tau(  40) = (  -0.2533779   0.5273969   0.0000000  )
        41           N   tau(  41) = (  -0.3367007   0.6711574   0.0000000  )
        42           N   tau(  42) = (  -0.4177577   0.8163130   0.0000000  )
        43           N   tau(  43) = (   0.1683262   0.0996797   0.0000000  )
        44           N   tau(  44) = (   0.0846472   0.2413865   0.0000000  )
        45           N   tau(  45) = (  -0.0021005   0.3846488   0.0000000  )
        46           N   tau(  46) = (  -0.0872100   0.5288166   0.0000000  )
        47           N   tau(  47) = (  -0.1699656   0.6733043   0.0000000  )
        48           N   tau(  48) = (  -0.2514991   0.8187899   0.0000000  )
        49           N   tau(  49) = (   0.3340625   0.1000856   0.0000000  )
        50           N   tau(  50) = (   0.2553988   0.2521242   0.0000000  )
        51           N   tau(  51) = (   0.1628642   0.3873516   0.0000000  )
        52           N   tau(  52) = (   0.0777857   0.5302557   0.0000000  )
        53           N   tau(  53) = (  -0.0035340   0.6738070   0.0000000  )
        54           N   tau(  54) = (  -0.0853517   0.8185159   0.0000000  )
        55           N   tau(  55) = (   0.5011071   0.0941526   0.0000000  )
        56           N   tau(  56) = (   0.4240925   0.2402616   0.0000000  )
        57           N   tau(  57) = (   0.2440068   0.5279339   0.0000000  )
        58           N   tau(  58) = (   0.1639411   0.6722877   0.0000000  )
        59           N   tau(  59) = (   0.0823449   0.8161356   0.0000000  )
        60           N   tau(  60) = (   0.6683816   0.0925339   0.0000000  )
        61           N   tau(  61) = (   0.5876302   0.2358581   0.0000000  )
        62           N   tau(  62) = (   0.5020858   0.3753455   0.0000000  )
        63           N   tau(  63) = (   0.4074201   0.5154810   0.0000000  )
        64           N   tau(  64) = (   0.3313212   0.6686530   0.0000000  )
        65           N   tau(  65) = (   0.2500926   0.8144394   0.0000000  )
        66           N   tau(  66) = (   0.8346960   0.0932962   0.0000000  )
        67           N   tau(  67) = (   0.7521558   0.2376108   0.0000000  )
        68           N   tau(  68) = (   0.6671246   0.3816584   0.0000000  )
        69           N   tau(  69) = (   0.5784688   0.5233399   0.0000000  )
        70           N   tau(  70) = (   0.4959355   0.6671171   0.0000000  )
        71           N   tau(  71) = (   0.4163376   0.8143728   0.0000000  )

     number of k points=     1
                       cart. coord. in units 2pi/alat
        k(    1) = (   0.0000000   0.0000000   0.0000000), wk =   1.0000000

     Dense  grid:  1457633 G-vectors     FFT dimensions: ( 135, 135, 180)

     Estimated max dynamical RAM per process >     161.20MB

     Estimated total allocated dynamical RAM >   10316.64MB
     Generating pointlists ...
     new r_m :   0.0391 (alat units)  1.1113 (a.u.) for type    1
     new r_m :   0.0375 (alat units)  1.0668 (a.u.) for type    2

     Initial potential from superposition of free atoms
     Check: negative starting charge=(component1):   -0.003141
     Check: negative starting charge=(component2):   -0.001047

     starting charge  284.99101, renormalised to  285.00000

     negative rho (up, down):  3.141E-03 1.047E-03
     Starting wfc are  284 randomized atomic wfcs

     total cpu time spent up to now is        8.1 secs

     per-process dynamical memory:   153.6 Mb

     Self-consistent Calculation

     iteration #  1     ecut=    55.00 Ry     beta=0.70
     Davidson diagonalization with overlap
     ethr =  1.00E-02,  avg # of iterations =  2.0

     negative rho (up, down):  5.153E-04 1.064E-04

     total cpu time spent up to now is       12.6 secs

     total energy              =    -915.14753291 Ry
     Harris-Foulkes estimate   =    -914.97515340 Ry
     estimated scf accuracy    <      16.82408966 Ry

     total magnetization       =     1.00 Bohr mag/cell
     absolute magnetization    =    10.81 Bohr mag/cell

     iteration #  2     ecut=    55.00 Ry     beta=0.70
     Davidson diagonalization with overlap
     ethr =  5.90E-03,  avg # of iterations =  3.0

     negative rho (up, down):  2.195E-04 2.576E-05

     total cpu time spent up to now is       17.4 secs

     total energy              =    -918.66712698 Ry
     Harris-Foulkes estimate   =    -921.71632628 Ry
     estimated scf accuracy    <       7.12380348 Ry

     total magnetization       =     1.00 Bohr mag/cell
     absolute magnetization    =     4.89 Bohr mag/cell

     iteration #  3     ecut=    55.00 Ry     beta=0.70
     Davidson diagonalization with overlap
     ethr =  2.50E-03,  avg # of iterations =  3.0

     negative rho (up, down):  2.636E-07 0.000E+00

     total cpu time spent up to now is       22.0 secs

     total energy              =    -920.44839754 Ry
     Harris-Foulkes estimate   =    -920.32657531 Ry
     estimated scf accuracy    <       0.40003263 Ry

     total magnetization       =     1.00 Bohr mag/cell
     absolute magnetization    =     4.22 Bohr mag/cell

     iteration #  4     ecut=    55.00 Ry     beta=0.70
     Davidson diagonalization with overlap
     ethr =  1.40E-04,  avg # of iterations =  9.0

     total cpu time spent up to now is       27.9 secs

     total energy              =    -920.55022373 Ry
     Harris-Foulkes estimate   =    -920.68557890 Ry
     estimated scf accuracy    <       0.33073154 Ry

     total magnetization       =     1.00 Bohr mag/cell
     absolute magnetization    =     2.55 Bohr mag/cell

     iteration #  5     ecut=    55.00 Ry     beta=0.70
     Davidson diagonalization with overlap
     ethr =  1.16E-04,  avg # of iterations =  4.0

     total cpu time spent up to now is       31.9 secs

     total energy              =    -920.60228877 Ry
     Harris-Foulkes estimate   =    -920.60803820 Ry
     estimated scf accuracy    <       0.01888384 Ry

     total magnetization       =     1.00 Bohr mag/cell
     absolute magnetization    =     2.13 Bohr mag/cell

     iteration #  6     ecut=    55.00 Ry     beta=0.70
     Davidson diagonalization with overlap
     ethr =  6.63E-06,  avg # of iterations = 12.0

     total cpu time spent up to now is       38.4 secs

     total energy              =    -920.60800325 Ry
     Harris-Foulkes estimate   =    -920.60724918 Ry
     estimated scf accuracy    <       0.00277620 Ry

     total magnetization       =     1.00 Bohr mag/cell
     absolute magnetization    =     1.72 Bohr mag/cell

     iteration #  7     ecut=    55.00 Ry     beta=0.70
     Davidson diagonalization with overlap
     ethr =  9.74E-07,  avg # of iterations =  3.5

     total cpu time spent up to now is       44.1 secs

     total energy              =    -920.60907287 Ry
     Harris-Foulkes estimate   =    -920.60979379 Ry
     estimated scf accuracy    <       0.00201798 Ry

     total magnetization       =     1.00 Bohr mag/cell
     absolute magnetization    =     1.30 Bohr mag/cell

     iteration #  8     ecut=    55.00 Ry     beta=0.70
     Davidson diagonalization with overlap
     ethr =  7.08E-07,  avg # of iterations =  3.0

     total cpu time spent up to now is       48.2 secs

     total energy              =    -920.60935410 Ry
     Harris-Foulkes estimate   =    -920.60933513 Ry
     estimated scf accuracy    <       0.00021464 Ry

     total magnetization       =     1.00 Bohr mag/cell
     absolute magnetization    =     1.24 Bohr mag/cell

     iteration #  9     ecut=    55.00 Ry     beta=0.70
     Davidson diagonalization with overlap
     ethr =  7.53E-08,  avg # of iterations =  3.0

     total cpu time spent up to now is       53.8 secs

     total energy              =    -920.60949178 Ry
     Harris-Foulkes estimate   =    -920.60944680 Ry
     estimated scf accuracy    <       0.00004309 Ry

     total magnetization       =     1.00 Bohr mag/cell
     absolute magnetization    =     1.18 Bohr mag/cell

     iteration # 10     ecut=    55.00 Ry     beta=0.70
     Davidson diagonalization with overlap
     ethr =  1.51E-08,  avg # of iterations =  4.0

     total cpu time spent up to now is       59.7 secs

     total energy              =    -920.60953886 Ry
     Harris-Foulkes estimate   =    -920.60954005 Ry
     estimated scf accuracy    <       0.00000818 Ry

     total magnetization       =     1.00 Bohr mag/cell
     absolute magnetization    =     1.12 Bohr mag/cell

     iteration # 11     ecut=    55.00 Ry     beta=0.70
     Davidson diagonalization with overlap
     ethr =  2.87E-09,  avg # of iterations =  3.0

     total cpu time spent up to now is       64.6 secs

     total energy              =    -920.60954156 Ry
     Harris-Foulkes estimate   =    -920.60954146 Ry
     estimated scf accuracy    <       0.00000099 Ry

     total magnetization       =     1.00 Bohr mag/cell
     absolute magnetization    =     1.11 Bohr mag/cell

     iteration # 12     ecut=    55.00 Ry     beta=0.70
     Davidson diagonalization with overlap
     ethr =  3.46E-10,  avg # of iterations =  3.0

     total cpu time spent up to now is       70.0 secs

     total energy              =    -920.60954208 Ry
     Harris-Foulkes estimate   =    -920.60954202 Ry
     estimated scf accuracy    <       0.00000016 Ry

     total magnetization       =     1.00 Bohr mag/cell
     absolute magnetization    =     1.11 Bohr mag/cell

     iteration # 13     ecut=    55.00 Ry     beta=0.70
     Davidson diagonalization with overlap
     ethr =  5.60E-11,  avg # of iterations =  3.0

     total cpu time spent up to now is       75.0 secs

     total energy              =    -920.60954218 Ry
     Harris-Foulkes estimate   =    -920.60954215 Ry
     estimated scf accuracy    <       0.00000003 Ry

     total magnetization       =     1.00 Bohr mag/cell
     absolute magnetization    =     1.12 Bohr mag/cell

     iteration # 14     ecut=    55.00 Ry     beta=0.70
     Davidson diagonalization with overlap
     ethr =  9.11E-12,  avg # of iterations =  3.0
 
     Magnetic moment per site:
     atom:    1    charge:    0.8209    magn:    0.0000    constr:    0.0000
     atom:    2    charge:    0.8355    magn:   -0.0000    constr:    0.0000
     atom:    3    charge:    0.8450    magn:    0.0000    constr:    0.0000
     atom:    4    charge:    0.8429    magn:    0.0006    constr:    0.0000
     atom:    5    charge:    0.8386    magn:    0.0001    constr:    0.0000
     atom:    6    charge:    0.8322    magn:    0.0000    constr:    0.0000
     atom:    7    charge:    0.8307    magn:    0.0008    constr:    0.0000
     atom:    8    charge:    0.8018    magn:   -0.0001    constr:    0.0000
     atom:    9    charge:    0.8517    magn:    0.0003    constr:    0.0000
     atom:   10    charge:    0.8499    magn:    0.0002    constr:    0.0000
     atom:   11    charge:    0.8425    magn:    0.0002    constr:    0.0000
     atom:   12    charge:    0.8401    magn:    0.0001    constr:    0.0000
     atom:   13    charge:    0.8386    magn:    0.0025    constr:    0.0000
     atom:   14    charge:    0.8199    magn:    0.0131    constr:    0.0000
     atom:   15    charge:    0.7417    magn:    0.0044    constr:    0.0000
     atom:   16    charge:    0.8686    magn:    0.0013    constr:    0.0000
     atom:   17    charge:    0.8496    magn:    0.0002    constr:    0.0000
     atom:   18    charge:    0.8430    magn:    0.0006    constr:    0.0000
     atom:   19    charge:    0.8466    magn:   -0.0001    constr:    0.0000
     atom:   20    charge:    0.8688    magn:    0.0056    constr:    0.0000
     atom:   21    charge:    2.4545    magn:    0.2888    constr:    0.0000
     atom:   22    charge:    0.7418    magn:    0.0044    constr:    0.0000
     atom:   23    charge:    0.8512    magn:    0.0003    constr:    0.0000
     atom:   24    charge:    0.8463    magn:    0.0000    constr:    0.0000
     atom:   25    charge:    0.8451    magn:    0.0002    constr:    0.0000
     atom:   26    charge:    0.8577    magn:    0.0015    constr:    0.0000
     atom:   27    charge:    0.8695    magn:    0.0056    constr:    0.0000
     atom:   28    charge:    0.8196    magn:    0.0131    constr:    0.0000
     atom:   29    charge:    0.8019    magn:   -0.0001    constr:    0.0000
     atom:   30    charge:    0.8337    magn:   -0.0000    constr:    0.0000
     atom:   31    charge:    0.8357    magn:    0.0001    constr:    0.0000
     atom:   32    charge:    0.8455    magn:    0.0002    constr:    0.0000
     atom:   33    charge:    0.8477    magn:   -0.0001    constr:    0.0000
     atom:   34    charge:    0.8370    magn:    0.0025    constr:    0.0000
     atom:   35    charge:    0.8300    magn:    0.0008    constr:    0.0000
     atom:   36    charge:    0.8213    magn:    0.0000    constr:    0.0000
     atom:   37    charge:    2.5790    magn:    0.0001    constr:    0.0000
     atom:   38    charge:    2.5833    magn:   -0.0001    constr:    0.0000
     atom:   39    charge:    2.5871    magn:   -0.0003    constr:    0.0000
     atom:   40    charge:    2.5748    magn:    0.0003    constr:    0.0000
     atom:   41    charge:    2.5679    magn:   -0.0000    constr:    0.0000
     atom:   42    charge:    2.5615    magn:    0.0007    constr:    0.0000
     atom:   43    charge:    2.5588    magn:    0.0001    constr:    0.0000
     atom:   44    charge:    2.5814    magn:   -0.0001    constr:    0.0000
     atom:   45    charge:    2.5832    magn:   -0.0002    constr:    0.0000
     atom:   46    charge:    2.5838    magn:   -0.0002    constr:    0.0000
     atom:   47    charge:    2.5772    magn:    0.0009    constr:    0.0000
     atom:   48    charge:    2.5676    magn:   -0.0000    constr:    0.0000
     atom:   49    charge:    2.5619    magn:    0.0017    constr:    0.0000
     atom:   50    charge:    2.5168    magn:   -0.0041    constr:    0.0000
     atom:   51    charge:    2.5938    magn:    0.0001    constr:    0.0000
     atom:   52    charge:    2.5952    magn:    0.0001    constr:    0.0000
     atom:   53    charge:    2.5759    magn:   -0.0002    constr:    0.0000
     atom:   54    charge:    2.5817    magn:    0.0003    constr:    0.0000
     atom:   55    charge:    2.5865    magn:   -0.0001    constr:    0.0000
     atom:   56    charge:    2.5551    magn:    0.0343    constr:    0.0000
     atom:   57    charge:    2.5915    magn:    0.0001    constr:    0.0000
     atom:   58    charge:    2.5871    magn:   -0.0002    constr:    0.0000
     atom:   59    charge:    2.5866    magn:   -0.0003    constr:    0.0000
     atom:   60    charge:    2.5852    magn:    0.0018    constr:    0.0000
     atom:   61    charge:    2.5983    magn:    0.0146    constr:    0.0000
     atom:   62    charge:    2.5557    magn:    0.0343    constr:    0.0000
     atom:   63    charge:    2.5182    magn:   -0.0041    constr:    0.0000
     atom:   64    charge:    2.5769    magn:   -0.0001    constr:    0.0000
     atom:   65    charge:    2.5773    magn:   -0.0001    constr:    0.0000
     atom:   66    charge:    2.5800    magn:    0.0008    constr:    0.0000
     atom:   67    charge:    2.5779    magn:    0.0018    constr:    0.0000
     atom:   68    charge:    2.5896    magn:   -0.0001    constr:    0.0000
     atom:   69    charge:    2.5621    magn:    0.0017    constr:    0.0000
     atom:   70    charge:    2.5507    magn:    0.0001    constr:    0.0000
     atom:   71    charge:    2.5754    magn:    0.0001    constr:    0.0000

     total cpu time spent up to now is       79.9 secs

     End of self-consistent calculation

 ------ SPIN UP ------------


          k = 0.0000 0.0000 0.0000 (182351 PWs)   bands (ev):

   -24.2761 -21.6912 -21.3364 -21.2752 -21.1896 -21.1748 -21.1633 -20.6804
   -20.5980 -20.2920 -20.2411 -20.1571 -20.1259 -20.0199 -19.9652 -19.8666
   -19.7654 -19.7591 -19.5786 -19.2422 -19.0210 -18.9033 -18.8352 -18.8216
   -18.8056 -18.7867 -18.7806 -18.7529 -18.7373 -18.6987 -18.6266 -18.5794
   -18.5572 -18.2156 -18.0742 -15.5914 -13.1166 -13.0345 -12.8737 -12.7591
   -12.5520 -12.3079 -12.2834 -12.2237 -12.2014 -12.1740 -12.1662 -12.1036
   -12.0927 -12.0439 -11.9521 -11.8516 -11.6176 -11.3071 -11.2807 -11.1828
   -11.1373 -11.0023 -10.8917 -10.7821 -10.2862 -10.2486  -9.8988  -9.7812
    -9.6811  -9.6311  -9.6298  -9.6170  -9.5636  -9.5362  -9.5121  -9.4791
    -9.4730  -9.4505  -9.4081  -9.3654  -9.3288  -9.1479  -8.9994  -8.9014
    -8.6946  -8.6770  -8.6650  -8.5963  -8.5425  -8.5161  -8.2675  -8.2419
    -8.2032  -8.1818  -8.0791  -8.0368  -8.0082  -7.9969  -7.9600  -7.9105
    -7.7656  -7.7458  -7.7040  -7.6929  -7.5310  -7.5141  -7.4884  -7.4439
    -7.4049  -7.3327  -7.3213  -7.2903  -7.1989  -7.1312  -6.8886  -6.8255
    -6.8005  -6.7539  -6.7376  -6.6555  -6.6165  -6.5516  -6.4019  -6.3805
    -6.3390  -6.2985  -5.8651  -5.6958  -5.5759  -5.5446  -5.4810  -5.2769
    -5.2351  -5.2129  -5.2099  -5.1960  -5.1932  -5.1384  -5.1381  -5.0715
    -5.0708  -4.9780  -4.9662  -4.3137  -4.1446  -3.4490  -2.2509  -0.2481
     0.5444   0.5813   0.6081   0.7086   0.7157   0.9351   1.2129

 ------ SPIN DOWN ----------


          k = 0.0000 0.0000 0.0000 (182351 PWs)   bands (ev):

   -23.9372 -21.6861 -21.3156 -21.2693 -21.1850 -21.1619 -21.1595 -20.6663
   -20.5442 -20.2842 -20.2384 -20.1553 -20.1213 -20.0071 -19.9614 -19.8593
   -19.7631 -19.7571 -19.5713 -19.2228 -19.0088 -18.8966 -18.8343 -18.8179
   -18.8036 -18.7855 -18.7787 -18.7520 -18.7371 -18.6972 -18.6261 -18.5798
   -18.5568 -18.2126 -18.0729 -15.2885 -13.0929 -13.0163 -12.8673 -12.7107
   -12.5360 -12.3021 -12.2785 -12.2198 -12.1987 -12.1659 -12.1650 -12.0937
   -12.0855 -12.0419 -11.9471 -11.8410 -11.6074 -11.2946 -11.2725 -11.1696
   -11.1303 -10.9968 -10.8831 -10.7716 -10.2716 -10.2221  -9.8852  -9.7641
    -9.6259  -9.6206  -9.6152  -9.5579  -9.5344  -9.5078  -9.4784  -9.4719
    -9.4492  -9.4058  -9.3995  -9.3628  -9.3274  -8.9889  -8.9588  -8.8965
    -8.6778  -8.6617  -8.6519  -8.5900  -8.5199  -8.4462  -8.2642  -8.2346
    -8.1878  -8.1778  -8.0750  -8.0339  -7.9956  -7.9921  -7.9550  -7.9078
    -7.7635  -7.6992  -7.6897  -7.5828  -7.5270  -7.5125  -7.4866  -7.4419
    -7.3438  -7.3189  -7.3122  -7.2781  -7.1907  -7.1065  -6.8400  -6.8195
    -6.7492  -6.7380  -6.7160  -6.6461  -6.6014  -6.5491  -6.4012  -6.3368
    -6.3366  -6.2953  -5.7378  -5.6935  -5.5597  -5.4264  -5.3643  -5.2583
    -5.2224  -5.2046  -5.2040  -5.1873  -5.1836  -5.1352  -5.1351  -5.0660
    -5.0620  -4.9670  -4.9609  -4.2945  -4.1295  -3.2630  -1.2373  -0.0032
     0.5890   0.6070   0.6156   0.7311   0.7392   0.9875   1.2656

     highest occupied, lowest unoccupied level (ev):    -2.2509   -1.2373

!    total energy              =    -920.60954220 Ry
     Harris-Foulkes estimate   =    -920.60954219 Ry
     estimated scf accuracy    <          4.5E-09 Ry

     The total energy is the sum of the following terms:

     one-electron contribution =   -7782.22501733 Ry
     hartree contribution      =    3943.85436770 Ry
     xc contribution           =    -262.28020896 Ry
     ewald contribution        =    3180.04131639 Ry

     total magnetization       =     1.00 Bohr mag/cell
     absolute magnetization    =     1.12 Bohr mag/cell

     convergence has been achieved in  14 iterations

     Forces acting on atoms (cartesian axes, Ry/au):

     atom    1 type  1   force =    -0.00027528   -0.00009053    0.00000000
     atom    2 type  1   force =     0.00016360    0.00015088    0.00000000
     atom    3 type  1   force =     0.00010365    0.00000047    0.00000000
     atom    4 type  1   force =     0.00022100   -0.00009302    0.00000000
     atom    5 type  1   force =    -0.00011701    0.00006050    0.00000000
     atom    6 type  1   force =    -0.00018484    0.00009845    0.00000000
     atom    7 type  1   force =     0.00005549   -0.00017836    0.00000000
     atom    8 type  1   force =    -0.00017584   -0.00007617    0.00000000
     atom    9 type  1   force =    -0.00026779    0.00020165    0.00000000
     atom   10 type  1   force =    -0.00012193    0.00010474    0.00000000
     atom   11 type  1   force =     0.00031523   -0.00021164    0.00000000
     atom   12 type  1   force =    -0.00004900    0.00009729    0.00000000
     atom   13 type  1   force =    -0.00004965   -0.00037667    0.00000000
     atom   14 type  1   force =    -0.00014428    0.00013263    0.00000000
     atom   15 type  1   force =     0.00023754    0.00025392    0.00000000
     atom   16 type  1   force =    -0.00015415    0.00012996    0.00000000
     atom   17 type  1   force =    -0.00013916   -0.00014319    0.00000000
     atom   18 type  1   force =     0.00021901   -0.00007329    0.00000000
     atom   19 type  1   force =     0.00010371   -0.00020776    0.00000000
     atom   20 type  1   force =     0.00039663   -0.00006250    0.00000000
     atom   21 type  2   force =    -0.00357221    0.00176636    0.00000000
     atom   22 type  1   force =    -0.00004083   -0.00031506    0.00000000
     atom   23 type  1   force =    -0.00027530    0.00014522    0.00000000
     atom   24 type  1   force =     0.00011400    0.00002187    0.00000000
     atom   25 type  1   force =    -0.00027645   -0.00036591    0.00000000
     atom   26 type  1   force =    -0.00005383    0.00008143    0.00000000
     atom   27 type  1   force =     0.00027332   -0.00024495    0.00000000
     atom   28 type  1   force =    -0.00014232    0.00012188    0.00000000
     atom   29 type  1   force =    -0.00001339    0.00026255    0.00000000
     atom   30 type  1   force =    -0.00000546   -0.00007371    0.00000000
     atom   31 type  1   force =     0.00032675   -0.00006985    0.00000000
     atom   32 type  1   force =     0.00016285    0.00029058    0.00000000
     atom   33 type  1   force =     0.00033092    0.00014402    0.00000000
     atom   34 type  1   force =     0.00029153    0.00015721    0.00000000
     atom   35 type  1   force =     0.00016852    0.00005761    0.00000000
     atom   36 type  1   force =     0.00003627    0.00041735    0.00000000
     atom   37 type  2   force =    -0.00052960   -0.00009696    0.00000000
     atom   38 type  2   force =     0.00073604   -0.00072132    0.00000000
     atom   39 type  2   force =     0.00050953   -0.00006621    0.00000000
     atom   40 type  2   force =    -0.00113423    0.00029343    0.00000000
     atom   41 type  2   force =    -0.00065335   -0.00091308    0.00000000
     atom   42 type  2   force =     0.00083858    0.00143168    0.00000000
     atom   43 type  2   force =     0.00021522   -0.00112539    0.00000000
     atom   44 type  2   force =     0.00011990    0.00063742    0.00000000
     atom   45 type  2   force =    -0.00195407   -0.00040506    0.00000000
     atom   46 type  2   force =     0.00008044    0.00118916    0.00000000
     atom   47 type  2   force =     0.00011124   -0.00040890    0.00000000
     atom   48 type  2   force =    -0.00032552   -0.00100657    0.00000000
     atom   49 type  2   force =     0.00025831   -0.00019581    0.00000000
     atom   50 type  2   force =     0.00017613    0.00067185    0.00000000
     atom   51 type  2   force =    -0.00019047    0.00133671    0.00000000
     atom   52 type  2   force =     0.00001983   -0.00107874    0.00000000
     atom   53 type  2   force =    -0.00004800    0.00012139    0.00000000
     atom   54 type  2   force =     0.00046327   -0.00031719    0.00000000
     atom   55 type  2   force =     0.00058891   -0.00101899    0.00000000
     atom   56 type  2   force =     0.00044078   -0.00294895    0.00000000
     atom   57 type  2   force =    -0.00026205    0.00178361    0.00000000
     atom   58 type  2   force =    -0.00108407   -0.00058392    0.00000000
     atom   59 type  2   force =     0.00018727    0.00088262    0.00000000
     atom   60 type  2   force =     0.00007502    0.00014073    0.00000000
     atom   61 type  2   force =    -0.00061249   -0.00038088    0.00000000
     atom   62 type  2   force =     0.00282213    0.00074209    0.00000000
     atom   63 type  2   force =     0.00095620    0.00062311    0.00000000
     atom   64 type  2   force =    -0.00063325    0.00087123    0.00000000
     atom   65 type  2   force =     0.00134269   -0.00021290    0.00000000
     atom   66 type  2   force =     0.00021790   -0.00131667    0.00000000
     atom   67 type  2   force =    -0.00047858    0.00014376    0.00000000
     atom   68 type  2   force =     0.00013286   -0.00016137    0.00000000
     atom   69 type  2   force =    -0.00016638    0.00016231    0.00000000
     atom   70 type  2   force =     0.00112787   -0.00044694    0.00000000
     atom   71 type  2   force =    -0.00080938    0.00026081    0.00000000

     Total force =     0.008450     Total SCF correction =     0.000130

     BFGS Geometry Optimization

     number of scf cycles    =   1
     number of bfgs steps    =   0

     energy   new            =    -920.6095421967 Ry

     new trust radius        =       0.0039850635 bohr
     new conv_thr            =       0.0000000100 Ry


ATOMIC_POSITIONS (crystal)
B        0.112526754   0.055628867   0.000000000
B        0.112230349   0.221138826   0.000000000
B        0.109601348   0.387335449   0.000000000
B        0.107282958   0.553953558   0.000000000
B        0.107139927   0.720496037   0.000000000
B        0.108864061   0.887340781   0.000000000
B        0.279577847   0.058086546   0.000000000
B        0.285332958   0.228956758   0.000000000
B        0.276512379   0.389536443   0.000000000
B        0.273451632   0.555273222   0.000000000
B        0.274186869   0.721953267   0.000000000
B        0.275717725   0.889101971   0.000000000
B        0.444327498   0.056517831   0.000000000
B        0.450130275   0.228745500   0.000000000
B        0.457602615   0.409081959   0.000000000
B        0.438587001   0.557524522   0.000000000
B        0.440934974   0.722767919   0.000000000
B        0.442180035   0.888888321   0.000000000
B        0.610495267   0.052731228   0.000000000
B        0.614074850   0.218476317   0.000000000
N        0.613676354   0.382539380   0.000000000
B        0.587062644   0.538552654   0.000000000
B        0.606579085   0.719622774   0.000000000
B        0.608900367   0.886646082   0.000000000
B        0.777161131   0.051392819   0.000000000
B        0.778829609   0.217350179   0.000000000
B        0.777711515   0.382100044   0.000000000
B        0.767447104   0.546070552   0.000000000
B        0.767210328   0.710838556   0.000000000
B        0.775000936   0.883903216   0.000000000
B        0.943943658   0.052215984   0.000000000
B        0.944851028   0.219086885   0.000000000
B        0.943439458   0.385660971   0.000000000
B        0.939707259   0.551854714   0.000000000
B        0.938125443   0.716607919   0.000000000
B        0.940528943   0.883645927   0.000000000
N        0.055761529   0.109602920   0.000000000
N        0.055810192   0.275915712   0.000000000
N        0.053768430   0.442583261   0.000000000
N        0.051080900   0.608997377   0.000000000
N        0.050750609   0.774948677   0.000000000
N        0.053599398   0.942655261   0.000000000
N        0.225861028   0.115054523   0.000000000
N        0.224028957   0.278755016   0.000000000
N        0.219899610   0.444137729   0.000000000
N        0.218129354   0.610673108   0.000000000
N        0.218762396   0.777448184   0.000000000
N        0.221197613   0.945416306   0.000000000
N        0.391852099   0.115560997   0.000000000
N        0.400982630   0.291155194   0.000000000
N        0.386522230   0.447329447   0.000000000
N        0.383907740   0.612242680   0.000000000
N        0.385489485   0.778050252   0.000000000
N        0.387228530   0.945127813   0.000000000
N        0.555466129   0.108676624   0.000000000
N        0.562763232   0.277310394   0.000000000
N        0.548836545   0.609677992   0.000000000
N        0.552036659   0.776267307   0.000000000
N        0.553565498   0.942428020   0.000000000
N        0.721811608   0.106854678   0.000000000
N        0.723773659   0.272330050   0.000000000
N        0.718905915   0.433441744   0.000000000
N        0.705079440   0.595251467   0.000000000
N        0.717363575   0.772129330   0.000000000
N        0.720352323   0.940425023   0.000000000
N        0.888541507   0.107675657   0.000000000
N        0.889326581   0.274375190   0.000000000
N        0.887476559   0.440694645   0.000000000
N        0.880616646   0.604307452   0.000000000
N        0.881126386   0.770302328   0.000000000
N        0.886492785   0.940367337   0.000000000



     Writing output data file BN.save
     Check: negative starting charge=(component1):   -0.004188
     NEW-OLD atomic charge density approx. for the potential
     Check: negative starting charge=(component1):   -0.004188

     negative rho (up, down):  4.708E-07 4.608E-07

     total cpu time spent up to now is       82.6 secs

     per-process dynamical memory:   161.5 Mb

     Self-consistent Calculation

     iteration #  1     ecut=    55.00 Ry     beta=0.70
     Davidson diagonalization with overlap
     ethr =  1.00E-06,  avg # of iterations =  3.0

     Threshold (ethr) on eigenvalues was too large:
     Diagonalizing with lowered threshold

     Davidson diagonalization with overlap
     ethr =  9.77E-09,  avg # of iterations =  4.0

     negative rho (up, down):  1.764E-06 3.192E-06

     total cpu time spent up to now is       91.5 secs

     total energy              =    -920.60955379 Ry
     Harris-Foulkes estimate   =    -920.60958130 Ry
     estimated scf accuracy    <       0.00003951 Ry

     total magnetization       =     1.00 Bohr mag/cell
     absolute magnetization    =     1.12 Bohr mag/cell

     iteration #  2     ecut=    55.00 Ry     beta=0.70
     Davidson diagonalization with overlap
     ethr =  1.39E-08,  avg # of iterations =  4.5

     negative rho (up, down):  2.338E-07 5.555E-07

     total cpu time spent up to now is       96.4 secs

     total energy              =    -920.60955933 Ry
     Harris-Foulkes estimate   =    -920.60958336 Ry
     estimated scf accuracy    <       0.00004985 Ry

     total magnetization       =     1.00 Bohr mag/cell
     absolute magnetization    =     1.12 Bohr mag/cell

     iteration #  3     ecut=    55.00 Ry     beta=0.70
     Davidson diagonalization with overlap
     ethr =  1.39E-08,  avg # of iterations =  4.0

     total cpu time spent up to now is      100.4 secs

     total energy              =    -920.60957025 Ry
     Harris-Foulkes estimate   =    -920.60957098 Ry
     estimated scf accuracy    <       0.00000170 Ry

     total magnetization       =     1.00 Bohr mag/cell
     absolute magnetization    =     1.12 Bohr mag/cell

     iteration #  4     ecut=    55.00 Ry     beta=0.70
     Davidson diagonalization with overlap
     ethr =  5.98E-10,  avg # of iterations =  4.0

     total cpu time spent up to now is      105.0 secs

     total energy              =    -920.60957078 Ry
     Harris-Foulkes estimate   =    -920.60957090 Ry
     estimated scf accuracy    <       0.00000030 Ry

     total magnetization       =     1.00 Bohr mag/cell
     absolute magnetization    =     1.12 Bohr mag/cell

     iteration #  5     ecut=    55.00 Ry     beta=0.70
     Davidson diagonalization with overlap
     ethr =  1.05E-10,  avg # of iterations =  3.0

     total cpu time spent up to now is      109.3 secs

     total energy              =    -920.60957086 Ry
     Harris-Foulkes estimate   =    -920.60957086 Ry
     estimated scf accuracy    <       0.00000003 Ry

     total magnetization       =     1.00 Bohr mag/cell
     absolute magnetization    =     1.12 Bohr mag/cell

     iteration #  6     ecut=    55.00 Ry     beta=0.70
     Davidson diagonalization with overlap
     ethr =  9.11E-12,  avg # of iterations =  3.5
 
     Magnetic moment per site:
     atom:    1    charge:    0.8212    magn:    0.0000    constr:    0.0000
     atom:    2    charge:    0.8356    magn:    0.0000    constr:    0.0000
     atom:    3    charge:    0.8454    magn:    0.0000    constr:    0.0000
     atom:    4    charge:    0.8425    magn:    0.0006    constr:    0.0000
     atom:    5    charge:    0.8386    magn:    0.0001    constr:    0.0000
     atom:    6    charge:    0.8321    magn:    0.0000    constr:    0.0000
     atom:    7    charge:    0.8306    magn:    0.0008    constr:    0.0000
     atom:    8    charge:    0.8014    magn:   -0.0001    constr:    0.0000
     atom:    9    charge:    0.8514    magn:    0.0002    constr:    0.0000
     atom:   10    charge:    0.8499    magn:    0.0002    constr:    0.0000
     atom:   11    charge:    0.8429    magn:    0.0002    constr:    0.0000
     atom:   12    charge:    0.8400    magn:    0.0001    constr:    0.0000
     atom:   13    charge:    0.8386    magn:    0.0025    constr:    0.0000
     atom:   14    charge:    0.8199    magn:    0.0130    constr:    0.0000
     atom:   15    charge:    0.7416    magn:    0.0044    constr:    0.0000
     atom:   16    charge:    0.8689    magn:    0.0013    constr:    0.0000
     atom:   17    charge:    0.8496    magn:    0.0002    constr:    0.0000
     atom:   18    charge:    0.8430    magn:    0.0006    constr:    0.0000
     atom:   19    charge:    0.8471    magn:   -0.0001    constr:    0.0000
     atom:   20    charge:    0.8691    magn:    0.0056    constr:    0.0000
     atom:   21    charge:    2.4520    magn:    0.2898    constr:    0.0000
     atom:   22    charge:    0.7413    magn:    0.0044    constr:    0.0000
     atom:   23    charge:    0.8515    magn:    0.0003    constr:    0.0000
     atom:   24    charge:    0.8459    magn:    0.0000    constr:    0.0000
     atom:   25    charge:    0.8452    magn:    0.0002    constr:    0.0000
     atom:   26    charge:    0.8577    magn:    0.0014    constr:    0.0000
     atom:   27    charge:    0.8698    magn:    0.0056    constr:    0.0000
     atom:   28    charge:    0.8198    magn:    0.0129    constr:    0.0000
     atom:   29    charge:    0.8016    magn:   -0.0001    constr:    0.0000
     atom:   30    charge:    0.8343    magn:    0.0000    constr:    0.0000
     atom:   31    charge:    0.8360    magn:    0.0001    constr:    0.0000
     atom:   32    charge:    0.8450    magn:    0.0002    constr:    0.0000
     atom:   33    charge:    0.8476    magn:   -0.0001    constr:    0.0000
     atom:   34    charge:    0.8371    magn:    0.0025    constr:    0.0000
     atom:   35    charge:    0.8305    magn:    0.0008    constr:    0.0000
     atom:   36    charge:    0.8207    magn:    0.0000    constr:    0.0000
     atom:   37    charge:    2.5791    magn:    0.0000    constr:    0.0000
     atom:   38    charge:    2.5833    magn:   -0.0001    constr:    0.0000
     atom:   39    charge:    2.5871    magn:   -0.0003    constr:    0.0000
     atom:   40    charge:    2.5748    magn:    0.0003    constr:    0.0000
     atom:   41    charge:    2.5679    magn:   -0.0000    constr:    0.0000
     atom:   42    charge:    2.5616    magn:    0.0007    constr:    0.0000
     atom:   43    charge:    2.5588    magn:    0.0001    constr:    0.0000
     atom:   44    charge:    2.5814    magn:   -0.0001    constr:    0.0000
     atom:   45    charge:    2.5833    magn:   -0.0002    constr:    0.0000
     atom:   46    charge:    2.5839    magn:   -0.0002    constr:    0.0000
     atom:   47    charge:    2.5771    magn:    0.0008    constr:    0.0000
     atom:   48    charge:    2.5676    magn:   -0.0000    constr:    0.0000
     atom:   49    charge:    2.5618    magn:    0.0017    constr:    0.0000
     atom:   50    charge:    2.5168    magn:   -0.0041    constr:    0.0000
     atom:   51    charge:    2.5938    magn:    0.0001    constr:    0.0000
     atom:   52    charge:    2.5953    magn:    0.0001    constr:    0.0000
     atom:   53    charge:    2.5759    magn:   -0.0002    constr:    0.0000
     atom:   54    charge:    2.5817    magn:    0.0003    constr:    0.0000
     atom:   55    charge:    2.5865    magn:   -0.0001    constr:    0.0000
     atom:   56    charge:    2.5545    magn:    0.0344    constr:    0.0000
     atom:   57    charge:    2.5914    magn:    0.0001    constr:    0.0000
     atom:   58    charge:    2.5872    magn:   -0.0002    constr:    0.0000
     atom:   59    charge:    2.5866    magn:   -0.0003    constr:    0.0000
     atom:   60    charge:    2.5852    magn:    0.0018    constr:    0.0000
     atom:   61    charge:    2.5984    magn:    0.0146    constr:    0.0000
     atom:   62    charge:    2.5550    magn:    0.0345    constr:    0.0000
     atom:   63    charge:    2.5182    magn:   -0.0041    constr:    0.0000
     atom:   64    charge:    2.5769    magn:   -0.0001    constr:    0.0000
     atom:   65    charge:    2.5774    magn:   -0.0001    constr:    0.0000
     atom:   66    charge:    2.5798    magn:    0.0008    constr:    0.0000
     atom:   67    charge:    2.5779    magn:    0.0018    constr:    0.0000
     atom:   68    charge:    2.5896    magn:   -0.0001    constr:    0.0000
     atom:   69    charge:    2.5621    magn:    0.0017    constr:    0.0000
     atom:   70    charge:    2.5506    magn:    0.0001    constr:    0.0000
     atom:   71    charge:    2.5754    magn:    0.0000    constr:    0.0000

     total cpu time spent up to now is      113.9 secs

     End of self-consistent calculation

 ------ SPIN UP ------------


          k = 0.0000 0.0000 0.0000 (182351 PWs)   bands (ev):

   -24.2456 -21.6908 -21.3345 -21.2747 -21.1894 -21.1743 -21.1635 -20.6795
   -20.5921 -20.2923 -20.2411 -20.1564 -20.1246 -20.0186 -19.9650 -19.8663
   -19.7649 -19.7592 -19.5788 -19.2378 -19.0210 -18.9022 -18.8357 -18.8208
   -18.8033 -18.7865 -18.7811 -18.7531 -18.7375 -18.6997 -18.6266 -18.5805
   -18.5578 -18.2155 -18.0748 -15.5944 -13.1157 -13.0320 -12.8736 -12.7508
   -12.5506 -12.3075 -12.2833 -12.2235 -12.2016 -12.1740 -12.1662 -12.1046
   -12.0931 -12.0433 -11.9523 -11.8509 -11.6181 -11.3072 -11.2812 -11.1801
   -11.1363 -11.0018 -10.8917 -10.7823 -10.2858 -10.2431  -9.8964  -9.7805
    -9.6717  -9.6319  -9.6302  -9.6173  -9.5631  -9.5356  -9.5118  -9.4803
    -9.4725  -9.4514  -9.4078  -9.3653  -9.3282  -9.1454  -8.9994  -8.9018
    -8.6943  -8.6726  -8.6641  -8.5965  -8.5428  -8.5156  -8.2670  -8.2421
    -8.2027  -8.1816  -8.0800  -8.0360  -8.0095  -7.9964  -7.9594  -7.9095
    -7.7659  -7.7430  -7.7056  -7.6929  -7.5299  -7.5138  -7.4885  -7.4440
    -7.4044  -7.3330  -7.3212  -7.2906  -7.1986  -7.1299  -6.8880  -6.8243
    -6.8008  -6.7549  -6.7371  -6.6559  -6.6163  -6.5514  -6.4014  -6.3807
    -6.3381  -6.2997  -5.8784  -5.6957  -5.5776  -5.5439  -5.4788  -5.2760
    -5.2346  -5.2110  -5.2093  -5.1964  -5.1932  -5.1388  -5.1384  -5.0718
    -5.0713  -4.9783  -4.9661  -4.3137  -4.1446  -3.4591  -2.2651  -0.2525
     0.5446   0.5810   0.6083   0.7090   0.7165   0.9353   1.2137

 ------ SPIN DOWN ----------


          k = 0.0000 0.0000 0.0000 (182351 PWs)   bands (ev):

   -23.9062 -21.6858 -21.3143 -21.2687 -21.1848 -21.1614 -21.1596 -20.6653
   -20.5384 -20.2845 -20.2384 -20.1547 -20.1200 -20.0056 -19.9612 -19.8590
   -19.7626 -19.7572 -19.5715 -19.2179 -19.0088 -18.8955 -18.8348 -18.8172
   -18.8013 -18.7853 -18.7793 -18.7522 -18.7374 -18.6982 -18.6262 -18.5808
   -18.5574 -18.2126 -18.0736 -15.2895 -13.0924 -13.0145 -12.8673 -12.7023
   -12.5346 -12.3017 -12.2783 -12.2196 -12.1988 -12.1660 -12.1650 -12.0947
   -12.0859 -12.0414 -11.9474 -11.8403 -11.6078 -11.2949 -11.2730 -11.1667
   -11.1293 -10.9963 -10.8831 -10.7718 -10.2711 -10.2164  -9.8827  -9.7635
    -9.6267  -9.6212  -9.6155  -9.5575  -9.5339  -9.5076  -9.4796  -9.4714
    -9.4501  -9.4056  -9.3965  -9.3627  -9.3269  -8.9889  -8.9539  -8.8969
    -8.6776  -8.6572  -8.6511  -8.5902  -8.5201  -8.4448  -8.2638  -8.2348
    -8.1873  -8.1775  -8.0757  -8.0332  -7.9950  -7.9933  -7.9542  -7.9068
    -7.7639  -7.7008  -7.6897  -7.5786  -7.5259  -7.5121  -7.4866  -7.4420
    -7.3434  -7.3188  -7.3126  -7.2785  -7.1905  -7.1051  -6.8385  -6.8182
    -6.7493  -6.7388  -6.7155  -6.6466  -6.6014  -6.5488  -6.4008  -6.3364
    -6.3359  -6.2966  -5.7485  -5.6935  -5.5635  -5.4245  -5.3619  -5.2574
    -5.2222  -5.2043  -5.2024  -5.1877  -5.1835  -5.1359  -5.1353  -5.0663
    -5.0625  -4.9672  -4.9609  -4.2945  -4.1295  -3.2735  -1.2460  -0.0073
     0.5890   0.6067   0.6157   0.7318   0.7392   0.9875   1.2661

     highest occupied, lowest unoccupied level (ev):    -2.2651   -1.2460

!    total energy              =    -920.60957087 Ry
     Harris-Foulkes estimate   =    -920.60957087 Ry
     estimated scf accuracy    <          3.7E-09 Ry

     The total energy is the sum of the following terms:

     one-electron contribution =   -7782.16191922 Ry
     hartree contribution      =    3943.82595364 Ry
     xc contribution           =    -262.27778808 Ry
     ewald contribution        =    3180.00418279 Ry

     total magnetization       =     1.00 Bohr mag/cell
     absolute magnetization    =     1.12 Bohr mag/cell

     convergence has been achieved in   6 iterations

     Forces acting on atoms (cartesian axes, Ry/au):

     atom    1 type  1   force =    -0.00018149    0.00032622    0.00000000
     atom    2 type  1   force =     0.00024654   -0.00024110    0.00000000
     atom    3 type  1   force =    -0.00047846   -0.00074853    0.00000000
     atom    4 type  1   force =    -0.00022825    0.00046504    0.00000000
     atom    5 type  1   force =    -0.00026807    0.00003341    0.00000000
     atom    6 type  1   force =    -0.00017468   -0.00048509    0.00000000
     atom    7 type  1   force =     0.00025503   -0.00070574    0.00000000
     atom    8 type  1   force =     0.00005606   -0.00023310    0.00000000
     atom    9 type  1   force =    -0.00051635    0.00079043    0.00000000
     atom   10 type  1   force =    -0.00053248   -0.00011555    0.00000000
     atom   11 type  1   force =     0.00000796    0.00051964    0.00000000
     atom   12 type  1   force =     0.00016091   -0.00046501    0.00000000
     atom   13 type  1   force =     0.00042964   -0.00028471    0.00000000
     atom   14 type  1   force =     0.00009520   -0.00057132    0.00000000
     atom   15 type  1   force =    -0.00029536    0.00056277    0.00000000
     atom   16 type  1   force =     0.00029331    0.00077944    0.00000000
     atom   17 type  1   force =    -0.00052473   -0.00061656    0.00000000
     atom   18 type  1   force =     0.00039922    0.00011390    0.00000000
     atom   19 type  1   force =     0.00031978    0.00023028    0.00000000
     atom   20 type  1   force =     0.00039054   -0.00117971    0.00000000
     atom   21 type  2   force =     0.00088847   -0.00060399    0.00000000
     atom   22 type  1   force =    -0.00030995    0.00075891    0.00000000
     atom   23 type  1   force =    -0.00041009    0.00095859    0.00000000
     atom   24 type  1   force =     0.00025008    0.00001360    0.00000000
     atom   25 type  1   force =     0.00014340   -0.00026235    0.00000000
     atom   26 type  1   force =    -0.00031773   -0.00007135    0.00000000
     atom   27 type  1   force =     0.00067088   -0.00053741    0.00000000
     atom   28 type  1   force =     0.00091384    0.00027884    0.00000000
     atom   29 type  1   force =     0.00008678    0.00060763    0.00000000
     atom   30 type  1   force =     0.00019123    0.00012608    0.00000000
     atom   31 type  1   force =    -0.00016673   -0.00023400    0.00000000
     atom   32 type  1   force =    -0.00001836   -0.00070680    0.00000000
     atom   33 type  1   force =     0.00003785    0.00016228    0.00000000
     atom   34 type  1   force =    -0.00052334   -0.00009130    0.00000000
     atom   35 type  1   force =     0.00024232   -0.00053590    0.00000000
     atom   36 type  1   force =     0.00012644    0.00040625    0.00000000
     atom   37 type  2   force =     0.00024978    0.00019968    0.00000000
     atom   38 type  2   force =     0.00001613    0.00001469    0.00000000
     atom   39 type  2   force =     0.00011244    0.00007631    0.00000000
     atom   40 type  2   force =     0.00037918   -0.00016543    0.00000000
     atom   41 type  2   force =    -0.00006160    0.00027965    0.00000000
     atom   42 type  2   force =    -0.00015266    0.00016423    0.00000000
     atom   43 type  2   force =    -0.00006161    0.00011670    0.00000000
     atom   44 type  2   force =     0.00023981    0.00014136    0.00000000
     atom   45 type  2   force =     0.00007480    0.00017049    0.00000000
     atom   46 type  2   force =    -0.00000244   -0.00012632    0.00000000
     atom   47 type  2   force =     0.00002257   -0.00003003    0.00000000
     atom   48 type  2   force =     0.00006088   -0.00019451    0.00000000
     atom   49 type  2   force =    -0.00027015   -0.00019492    0.00000000
     atom   50 type  2   force =    -0.00001995    0.00038435    0.00000000
     atom   51 type  2   force =    -0.00009339   -0.00000830    0.00000000
     atom   52 type  2   force =    -0.00032939   -0.00006611    0.00000000
     atom   53 type  2   force =     0.00020003   -0.00006136    0.00000000
     atom   54 type  2   force =    -0.00008132   -0.00022645    0.00000000
     atom   55 type  2   force =     0.00003410   -0.00018778    0.00000000
     atom   56 type  2   force =    -0.00110077    0.00103697    0.00000000
     atom   57 type  2   force =     0.00021835   -0.00032176    0.00000000
     atom   58 type  2   force =    -0.00031202    0.00023107    0.00000000
     atom   59 type  2   force =     0.00038063   -0.00031694    0.00000000
     atom   60 type  2   force =     0.00011857   -0.00002436    0.00000000
     atom   61 type  2   force =     0.00018803   -0.00003053    0.00000000
     atom   62 type  2   force =    -0.00169616    0.00019585    0.00000000
     atom   63 type  2   force =    -0.00012293    0.00019256    0.00000000
     atom   64 type  2   force =     0.00005655   -0.00003817    0.00000000
     atom   65 type  2   force =    -0.00038470   -0.00028780    0.00000000
     atom   66 type  2   force =    -0.00011605    0.00027331    0.00000000
     atom   67 type  2   force =     0.00023722    0.00008146    0.00000000
     atom   68 type  2   force =     0.00051732   -0.00002978    0.00000000
     atom   69 type  2   force =     0.00002541    0.00002709    0.00000000
     atom   70 type  2   force =    -0.00007139    0.00052207    0.00000000
     atom   71 type  2   force =     0.00048535   -0.00024108    0.00000000

     Total force =     0.004805     Total SCF correction =     0.000122

     number of scf cycles    =   2
     number of bfgs steps    =   1

     energy   old            =    -920.6095421967 Ry
     energy   new            =    -920.6095708654 Ry

     CASE: energy  _new < energy  _old

     new trust radius        =       0.0010763498 bohr
     new conv_thr            =            1.0E-10 Ry


ATOMIC_POSITIONS (crystal)
B        0.112524672   0.055639201   0.000000000
B        0.112235249   0.221131864   0.000000000
B        0.109575328   0.387310068   0.000000000
B        0.107285306   0.553968580   0.000000000
B        0.107132048   0.720497657   0.000000000
B        0.108849813   0.887325122   0.000000000
B        0.279573039   0.058061176   0.000000000
B        0.285329119   0.228948240   0.000000000
B        0.276509562   0.389564872   0.000000000
B        0.273433605   0.555270146   0.000000000
B        0.274197259   0.721969186   0.000000000
B        0.275714616   0.889086983   0.000000000
B        0.444333427   0.056505143   0.000000000
B        0.450122912   0.228727192   0.000000000
B        0.457606161   0.409103088   0.000000000
B        0.438608281   0.557552002   0.000000000
B        0.440907561   0.722745857   0.000000000
B        0.442194923   0.888891594   0.000000000
B        0.610508450   0.052737366   0.000000000
B        0.614068829   0.218435805   0.000000000
N        0.613674415   0.382533113   0.000000000
B        0.587064857   0.538575856   0.000000000
B        0.606581961   0.719656452   0.000000000
B        0.608908826   0.886646720   0.000000000
B        0.777157495   0.051380977   0.000000000
B        0.778819020   0.217348414   0.000000000
B        0.777723025   0.382079847   0.000000000
B        0.767478170   0.546080990   0.000000000
B        0.767224143   0.710861276   0.000000000
B        0.775008356   0.883906899   0.000000000
B        0.943936790   0.052207486   0.000000000
B        0.944840808   0.219065254   0.000000000
B        0.943446208   0.385667633   0.000000000
B        0.939693005   0.551852883   0.000000000
B        0.938124879   0.716590209   0.000000000
B        0.940541477   0.883663063   0.000000000
N        0.055768169   0.109608911   0.000000000
N        0.055813142   0.275910404   0.000000000
N        0.053776312   0.442585315   0.000000000
N        0.051082506   0.608994129   0.000000000
N        0.050745313   0.774950811   0.000000000
N        0.053609306   0.942672354   0.000000000
N        0.225858169   0.115049423   0.000000000
N        0.224041798   0.278764940   0.000000000
N        0.219889447   0.444140251   0.000000000
N        0.218132486   0.610678395   0.000000000
N        0.218761679   0.777443874   0.000000000
N        0.221189783   0.945401608   0.000000000
N        0.391841872   0.115552810   0.000000000
N        0.400992493   0.291173636   0.000000000
N        0.386523398   0.447339924   0.000000000
N        0.383892741   0.612231756   0.000000000
N        0.385494473   0.778049148   0.000000000
N        0.387224255   0.945117580   0.000000000
N        0.555463950   0.108662054   0.000000000
N        0.562739691   0.277321826   0.000000000
N        0.548842853   0.609681435   0.000000000
N        0.552021507   0.776270443   0.000000000
N        0.553576161   0.942424375   0.000000000
N        0.721815766   0.106854984   0.000000000
N        0.723772862   0.272325949   0.000000000
N        0.718882077   0.433454359   0.000000000
N        0.705088267   0.595263013   0.000000000
N        0.717363681   0.772135048   0.000000000
N        0.720344646   0.940413549   0.000000000
N        0.888538953   0.107674328   0.000000000
N        0.889332172   0.274379110   0.000000000
N        0.887491525   0.440692336   0.000000000
N        0.880617345   0.604309677   0.000000000
N        0.881139205   0.770316436   0.000000000
N        0.886498360   0.940361261   0.000000000



     Writing output data file BN.save
     Check: negative starting charge=(component1):   -0.004188
     NEW-OLD atomic charge density approx. for the potential
     Check: negative starting charge=(component1):   -0.004188

     total cpu time spent up to now is      116.7 secs

     per-process dynamical memory:   177.1 Mb

     Self-consistent Calculation

     iteration #  1     ecut=    55.00 Ry     beta=0.70
     Davidson diagonalization with overlap
     ethr =  1.00E-06,  avg # of iterations =  2.0

     Threshold (ethr) on eigenvalues was too large:
     Diagonalizing with lowered threshold

     Davidson diagonalization with overlap
     ethr =  6.76E-10,  avg # of iterations =  4.5

     total cpu time spent up to now is      126.3 secs

     total energy              =    -920.60957965 Ry
     Harris-Foulkes estimate   =    -920.60958194 Ry
     estimated scf accuracy    <       0.00000350 Ry

     total magnetization       =     1.00 Bohr mag/cell
     absolute magnetization    =     1.12 Bohr mag/cell

     iteration #  2     ecut=    55.00 Ry     beta=0.70
     Davidson diagonalization with overlap
     ethr =  1.23E-09,  avg # of iterations =  4.0

     total cpu time spent up to now is      131.1 secs

     total energy              =    -920.60958029 Ry
     Harris-Foulkes estimate   =    -920.60958187 Ry
     estimated scf accuracy    <       0.00000302 Ry

     total magnetization       =     1.00 Bohr mag/cell
     absolute magnetization    =     1.12 Bohr mag/cell

     iteration #  3     ecut=    55.00 Ry     beta=0.70
     Davidson diagonalization with overlap
     ethr =  1.06E-09,  avg # of iterations =  3.5

     total cpu time spent up to now is      135.3 secs

     total energy              =    -920.60958099 Ry
     Harris-Foulkes estimate   =    -920.60958105 Ry
     estimated scf accuracy    <       0.00000014 Ry

     total magnetization       =     1.00 Bohr mag/cell
     absolute magnetization    =     1.12 Bohr mag/cell

     iteration #  4     ecut=    55.00 Ry     beta=0.70
     Davidson diagonalization with overlap
     ethr =  5.09E-11,  avg # of iterations =  4.0

     total cpu time spent up to now is      139.9 secs

     total energy              =    -920.60958103 Ry
     Harris-Foulkes estimate   =    -920.60958104 Ry
     estimated scf accuracy    <       0.00000003 Ry

     total magnetization       =     1.00 Bohr mag/cell
     absolute magnetization    =     1.12 Bohr mag/cell

     iteration #  5     ecut=    55.00 Ry     beta=0.70
     Davidson diagonalization with overlap
     ethr =  1.17E-11,  avg # of iterations =  3.5

     total cpu time spent up to now is      144.0 secs

     total energy              =    -920.60958104 Ry
     Harris-Foulkes estimate   =    -920.60958104 Ry
     estimated scf accuracy    <          4.2E-09 Ry

     total magnetization       =     1.00 Bohr mag/cell
     absolute magnetization    =     1.12 Bohr mag/cell

     iteration #  6     ecut=    55.00 Ry     beta=0.70
     Davidson diagonalization with overlap
     ethr =  1.49E-12,  avg # of iterations =  4.0

     total cpu time spent up to now is      148.4 secs

     total energy              =    -920.60958104 Ry
     Harris-Foulkes estimate   =    -920.60958104 Ry
     estimated scf accuracy    <          3.3E-10 Ry

     total magnetization       =     1.00 Bohr mag/cell
     absolute magnetization    =     1.12 Bohr mag/cell

     iteration #  7     ecut=    55.00 Ry     beta=0.70
     Davidson diagonalization with overlap
     ethr =  1.15E-13,  avg # of iterations =  4.0
 
     Magnetic moment per site:
     atom:    1    charge:    0.8213    magn:    0.0000    constr:    0.0000
     atom:    2    charge:    0.8356    magn:    0.0000    constr:    0.0000
     atom:    3    charge:    0.8454    magn:    0.0000    constr:    0.0000
     atom:    4    charge:    0.8425    magn:    0.0006    constr:    0.0000
     atom:    5    charge:    0.8386    magn:    0.0001    constr:    0.0000
     atom:    6    charge:    0.8321    magn:    0.0000    constr:    0.0000
     atom:    7    charge:    0.8306    magn:    0.0008    constr:    0.0000
     atom:    8    charge:    0.8014    magn:   -0.0001    constr:    0.0000
     atom:    9    charge:    0.8513    magn:    0.0002    constr:    0.0000
     atom:   10    charge:    0.8499    magn:    0.0002    constr:    0.0000
     atom:   11    charge:    0.8429    magn:    0.0002    constr:    0.0000
     atom:   12    charge:    0.8400    magn:    0.0001    constr:    0.0000
     atom:   13    charge:    0.8385    magn:    0.0025    constr:    0.0000
     atom:   14    charge:    0.8200    magn:    0.0130    constr:    0.0000
     atom:   15    charge:    0.7416    magn:    0.0044    constr:    0.0000
     atom:   16    charge:    0.8689    magn:    0.0013    constr:    0.0000
     atom:   17    charge:    0.8497    magn:    0.0002    constr:    0.0000
     atom:   18    charge:    0.8430    magn:    0.0006    constr:    0.0000
     atom:   19    charge:    0.8471    magn:   -0.0001    constr:    0.0000
     atom:   20    charge:    0.8688    magn:    0.0056    constr:    0.0000
     atom:   21    charge:    2.4523    magn:    0.2897    constr:    0.0000
     atom:   22    charge:    0.7413    magn:    0.0044    constr:    0.0000
     atom:   23    charge:    0.8514    magn:    0.0003    constr:    0.0000
     atom:   24    charge:    0.8461    magn:    0.0000    constr:    0.0000
     atom:   25    charge:    0.8452    magn:    0.0002    constr:    0.0000
     atom:   26    charge:    0.8577    magn:    0.0014    constr:    0.0000
     atom:   27    charge:    0.8695    magn:    0.0056    constr:    0.0000
     atom:   28    charge:    0.8199    magn:    0.0130    constr:    0.0000
     atom:   29    charge:    0.8016    magn:   -0.0001    constr:    0.0000
     atom:   30    charge:    0.8343    magn:    0.0000    constr:    0.0000
     atom:   31    charge:    0.8360    magn:    0.0001    constr:    0.0000
     atom:   32    charge:    0.8450    magn:    0.0002    constr:    0.0000
     atom:   33    charge:    0.8477    magn:   -0.0000    constr:    0.0000
     atom:   34    charge:    0.8371    magn:    0.0025    constr:    0.0000
     atom:   35    charge:    0.8306    magn:    0.0008    constr:    0.0000
     atom:   36    charge:    0.8208    magn:    0.0000    constr:    0.0000
     atom:   37    charge:    2.5792    magn:    0.0000    constr:    0.0000
     atom:   38    charge:    2.5833    magn:   -0.0001    constr:    0.0000
     atom:   39    charge:    2.5871    magn:   -0.0003    constr:    0.0000
     atom:   40    charge:    2.5748    magn:    0.0003    constr:    0.0000
     atom:   41    charge:    2.5680    magn:   -0.0000    constr:    0.0000
     atom:   42    charge:    2.5616    magn:    0.0007    constr:    0.0000
     atom:   43    charge:    2.5587    magn:    0.0001    constr:    0.0000
     atom:   44    charge:    2.5812    magn:   -0.0001    constr:    0.0000
     atom:   45    charge:    2.5833    magn:   -0.0002    constr:    0.0000
     atom:   46    charge:    2.5839    magn:   -0.0002    constr:    0.0000
     atom:   47    charge:    2.5772    magn:    0.0008    constr:    0.0000
     atom:   48    charge:    2.5676    magn:   -0.0000    constr:    0.0000
     atom:   49    charge:    2.5618    magn:    0.0017    constr:    0.0000
     atom:   50    charge:    2.5166    magn:   -0.0041    constr:    0.0000
     atom:   51    charge:    2.5937    magn:    0.0001    constr:    0.0000
     atom:   52    charge:    2.5953    magn:    0.0001    constr:    0.0000
     atom:   53    charge:    2.5760    magn:   -0.0002    constr:    0.0000
     atom:   54    charge:    2.5817    magn:    0.0003    constr:    0.0000
     atom:   55    charge:    2.5866    magn:   -0.0001    constr:    0.0000
     atom:   56    charge:    2.5544    magn:    0.0344    constr:    0.0000
     atom:   57    charge:    2.5915    magn:    0.0001    constr:    0.0000
     atom:   58    charge:    2.5872    magn:   -0.0002    constr:    0.0000
     atom:   59    charge:    2.5866    magn:   -0.0003    constr:    0.0000
     atom:   60    charge:    2.5852    magn:    0.0018    constr:    0.0000
     atom:   61    charge:    2.5985    magn:    0.0146    constr:    0.0000
     atom:   62    charge:    2.5548    magn:    0.0345    constr:    0.0000
     atom:   63    charge:    2.5180    magn:   -0.0041    constr:    0.0000
     atom:   64    charge:    2.5769    magn:   -0.0001    constr:    0.0000
     atom:   65    charge:    2.5774    magn:   -0.0001    constr:    0.0000
     atom:   66    charge:    2.5798    magn:    0.0008    constr:    0.0000
     atom:   67    charge:    2.5778    magn:    0.0018    constr:    0.0000
     atom:   68    charge:    2.5896    magn:   -0.0001    constr:    0.0000
     atom:   69    charge:    2.5624    magn:    0.0017    constr:    0.0000
     atom:   70    charge:    2.5505    magn:    0.0001    constr:    0.0000
     atom:   71    charge:    2.5755    magn:    0.0000    constr:    0.0000

     total cpu time spent up to now is      153.1 secs

     End of self-consistent calculation

 ------ SPIN UP ------------


          k = 0.0000 0.0000 0.0000 (182351 PWs)   bands (ev):

   -24.2458 -21.6916 -21.3352 -21.2756 -21.1901 -21.1738 -21.1639 -20.6798
   -20.5915 -20.2931 -20.2417 -20.1563 -20.1255 -20.0191 -19.9656 -19.8669
   -19.7650 -19.7590 -19.5788 -19.2380 -19.0211 -18.9038 -18.8360 -18.8217
   -18.8048 -18.7872 -18.7814 -18.7535 -18.7375 -18.6988 -18.6261 -18.5789
   -18.5569 -18.2159 -18.0738 -15.5918 -13.1151 -13.0326 -12.8738 -12.7513
   -12.5506 -12.3090 -12.2834 -12.2241 -12.2023 -12.1741 -12.1664 -12.1033
   -12.0929 -12.0435 -11.9520 -11.8504 -11.6188 -11.3072 -11.2808 -11.1804
   -11.1370 -11.0021 -10.8913 -10.7815 -10.2862 -10.2434  -9.8968  -9.7798
    -9.6713  -9.6328  -9.6309  -9.6174  -9.5640  -9.5361  -9.5118  -9.4802
    -9.4734  -9.4511  -9.4075  -9.3656  -9.3288  -9.1456  -8.9993  -8.9016
    -8.6951  -8.6735  -8.6651  -8.5968  -8.5422  -8.5156  -8.2679  -8.2423
    -8.2025  -8.1815  -8.0801  -8.0361  -8.0091  -7.9971  -7.9602  -7.9102
    -7.7660  -7.7435  -7.7045  -7.6927  -7.5307  -7.5142  -7.4883  -7.4438
    -7.4041  -7.3335  -7.3212  -7.2909  -7.1983  -7.1306  -6.8886  -6.8249
    -6.8005  -6.7544  -6.7378  -6.6555  -6.6160  -6.5516  -6.4018  -6.3807
    -6.3387  -6.2990  -5.8745  -5.6960  -5.5773  -5.5435  -5.4782  -5.2775
    -5.2352  -5.2122  -5.2101  -5.1962  -5.1930  -5.1391  -5.1385  -5.0714
    -5.0704  -4.9776  -4.9662  -4.3140  -4.1443  -3.4556  -2.2622  -0.2501
     0.5444   0.5812   0.6082   0.7089   0.7157   0.9349   1.2139

 ------ SPIN DOWN ----------


          k = 0.0000 0.0000 0.0000 (182351 PWs)   bands (ev):

   -23.9064 -21.6865 -21.3151 -21.2697 -21.1854 -21.1608 -21.1600 -20.6657
   -20.5379 -20.2853 -20.2390 -20.1546 -20.1209 -20.0060 -19.9619 -19.8597
   -19.7627 -19.7570 -19.5715 -19.2181 -19.0088 -18.8972 -18.8352 -18.8181
   -18.8028 -18.7859 -18.7795 -18.7526 -18.7373 -18.6974 -18.6257 -18.5793
   -18.5565 -18.2130 -18.0725 -15.2871 -13.0918 -13.0152 -12.8674 -12.7027
   -12.5346 -12.3033 -12.2785 -12.2201 -12.1995 -12.1661 -12.1653 -12.0935
   -12.0857 -12.0416 -11.9469 -11.8398 -11.6086 -11.2949 -11.2726 -11.1671
   -11.1300 -10.9967 -10.8826 -10.7709 -10.2716 -10.2167  -9.8831  -9.7628
    -9.6277  -9.6218  -9.6155  -9.5583  -9.5343  -9.5076  -9.4795  -9.4723
    -9.4498  -9.4052  -9.3968  -9.3631  -9.3275  -8.9888  -8.9537  -8.8966
    -8.6784  -8.6581  -8.6520  -8.5905  -8.5196  -8.4444  -8.2646  -8.2350
    -8.1870  -8.1775  -8.0759  -8.0333  -7.9958  -7.9930  -7.9551  -7.9075
    -7.7640  -7.6996  -7.6896  -7.5789  -7.5267  -7.5125  -7.4863  -7.4418
    -7.3434  -7.3188  -7.3131  -7.2787  -7.1903  -7.1058  -6.8392  -6.8189
    -6.7492  -6.7383  -6.7162  -6.6461  -6.6009  -6.5490  -6.4011  -6.3364
    -6.3364  -6.2959  -5.7453  -5.6938  -5.5625  -5.4245  -5.3615  -5.2590
    -5.2228  -5.2050  -5.2035  -5.1875  -5.1833  -5.1361  -5.1355  -5.0658
    -5.0616  -4.9666  -4.9610  -4.2949  -4.1292  -3.2699  -1.2436  -0.0051
     0.5889   0.6069   0.6156   0.7311   0.7392   0.9873   1.2663

     highest occupied, lowest unoccupied level (ev):    -2.2622   -1.2436

!    total energy              =    -920.60958104 Ry
     Harris-Foulkes estimate   =    -920.60958104 Ry
     estimated scf accuracy    <          7.0E-11 Ry

     The total energy is the sum of the following terms:

     one-electron contribution =   -7782.16697310 Ry
     hartree contribution      =    3943.82766826 Ry
     xc contribution           =    -262.27802315 Ry
     ewald contribution        =    3180.00774694 Ry

     total magnetization       =     1.00 Bohr mag/cell
     absolute magnetization    =     1.12 Bohr mag/cell

     convergence has been achieved in   7 iterations

     Forces acting on atoms (cartesian axes, Ry/au):

     atom    1 type  1   force =     0.00013099    0.00027146    0.00000000
     atom    2 type  1   force =     0.00032985    0.00010569    0.00000000
     atom    3 type  1   force =    -0.00015616   -0.00029490    0.00000000
     atom    4 type  1   force =     0.00005016    0.00013337    0.00000000
     atom    5 type  1   force =    -0.00005450   -0.00003551    0.00000000
     atom    6 type  1   force =    -0.00018140   -0.00004013    0.00000000
     atom    7 type  1   force =    -0.00008015   -0.00038290    0.00000000
     atom    8 type  1   force =     0.00018923    0.00010984    0.00000000
     atom    9 type  1   force =    -0.00011248    0.00035473    0.00000000
     atom   10 type  1   force =    -0.00032513   -0.00017489    0.00000000
     atom   11 type  1   force =     0.00002908    0.00018100    0.00000000
     atom   12 type  1   force =     0.00003595   -0.00029231    0.00000000
     atom   13 type  1   force =    -0.00005509   -0.00022931    0.00000000
     atom   14 type  1   force =    -0.00036973   -0.00004936    0.00000000
     atom   15 type  1   force =    -0.00018646    0.00038256    0.00000000
     atom   16 type  1   force =     0.00009959    0.00019058    0.00000000
     atom   17 type  1   force =    -0.00027683   -0.00036474    0.00000000
     atom   18 type  1   force =     0.00029858   -0.00001586    0.00000000
     atom   19 type  1   force =     0.00033139   -0.00014656    0.00000000
     atom   20 type  1   force =    -0.00053905   -0.00007597    0.00000000
     atom   21 type  2   force =     0.00030545   -0.00030599    0.00000000
     atom   22 type  1   force =     0.00005183    0.00049688    0.00000000
     atom   23 type  1   force =    -0.00022293    0.00029978    0.00000000
     atom   24 type  1   force =    -0.00000665   -0.00014899    0.00000000
     atom   25 type  1   force =     0.00008641   -0.00014287    0.00000000
     atom   26 type  1   force =     0.00021460    0.00001816    0.00000000
     atom   27 type  1   force =    -0.00026170    0.00021001    0.00000000
     atom   28 type  1   force =    -0.00009230    0.00017940    0.00000000
     atom   29 type  1   force =     0.00010881    0.00026747    0.00000000
     atom   30 type  1   force =     0.00016208   -0.00001298    0.00000000
     atom   31 type  1   force =     0.00002049   -0.00004257    0.00000000
     atom   32 type  1   force =     0.00000677   -0.00018377    0.00000000
     atom   33 type  1   force =     0.00035037    0.00001980    0.00000000
     atom   34 type  1   force =    -0.00004067   -0.00010022    0.00000000
     atom   35 type  1   force =    -0.00012846    0.00000165    0.00000000
     atom   36 type  1   force =     0.00034350    0.00015903    0.00000000
     atom   37 type  2   force =    -0.00006161   -0.00000738    0.00000000
     atom   38 type  2   force =    -0.00019918   -0.00031966    0.00000000
     atom   39 type  2   force =    -0.00012991    0.00013564    0.00000000
     atom   40 type  2   force =    -0.00005931    0.00000065    0.00000000
     atom   41 type  2   force =     0.00002969    0.00000329    0.00000000
     atom   42 type  2   force =    -0.00013198   -0.00011736    0.00000000
     atom   43 type  2   force =     0.00008481   -0.00000327    0.00000000
     atom   44 type  2   force =    -0.00002438    0.00012778    0.00000000
     atom   45 type  2   force =    -0.00016697    0.00008683    0.00000000
     atom   46 type  2   force =    -0.00019475    0.00008171    0.00000000
     atom   47 type  2   force =    -0.00012489   -0.00004269    0.00000000
     atom   48 type  2   force =     0.00011963   -0.00033038    0.00000000
     atom   49 type  2   force =     0.00015337   -0.00046529    0.00000000
     atom   50 type  2   force =     0.00000559   -0.00003491    0.00000000
     atom   51 type  2   force =    -0.00022317    0.00031037    0.00000000
     atom   52 type  2   force =    -0.00029741    0.00008859    0.00000000
     atom   53 type  2   force =     0.00002569    0.00007295    0.00000000
     atom   54 type  2   force =     0.00011350   -0.00018034    0.00000000
     atom   55 type  2   force =     0.00011851   -0.00025898    0.00000000
     atom   56 type  2   force =     0.00032152    0.00016274    0.00000000
     atom   57 type  2   force =     0.00000201    0.00048468    0.00000000
     atom   58 type  2   force =    -0.00022709    0.00016754    0.00000000
     atom   59 type  2   force =     0.00026452   -0.00002515    0.00000000
     atom   60 type  2   force =     0.00013328   -0.00006658    0.00000000
     atom   61 type  2   force =     0.00007788   -0.00029185    0.00000000
     atom   62 type  2   force =    -0.00019935   -0.00044579    0.00000000
     atom   63 type  2   force =     0.00008869    0.00032055    0.00000000
     atom   64 type  2   force =     0.00001598    0.00018948    0.00000000
     atom   65 type  2   force =    -0.00014170   -0.00005674    0.00000000
     atom   66 type  2   force =    -0.00009195   -0.00009315    0.00000000
     atom   67 type  2   force =     0.00008897   -0.00014191    0.00000000
     atom   68 type  2   force =     0.00001367    0.00000915    0.00000000
     atom   69 type  2   force =     0.00029023   -0.00007407    0.00000000
     atom   70 type  2   force =     0.00007090    0.00035784    0.00000000
     atom   71 type  2   force =     0.00019977    0.00001416    0.00000000

     Total force =     0.002412     Total SCF correction =     0.000016

     bfgs converged in   3 scf cycles and   2 bfgs steps
     (criteria: energy <  1.0E-04 Ry, force <  1.0E-03 Ry/Bohr)

     End of BFGS Geometry Optimization

     Final energy   =    -920.6095810374 Ry
Begin final coordinates

ATOMIC_POSITIONS (crystal)
B        0.112524672   0.055639201   0.000000000
B        0.112235249   0.221131864   0.000000000
B        0.109575328   0.387310068   0.000000000
B        0.107285306   0.553968580   0.000000000
B        0.107132048   0.720497657   0.000000000
B        0.108849813   0.887325122   0.000000000
B        0.279573039   0.058061176   0.000000000
B        0.285329119   0.228948240   0.000000000
B        0.276509562   0.389564872   0.000000000
B        0.273433605   0.555270146   0.000000000
B        0.274197259   0.721969186   0.000000000
B        0.275714616   0.889086983   0.000000000
B        0.444333427   0.056505143   0.000000000
B        0.450122912   0.228727192   0.000000000
B        0.457606161   0.409103088   0.000000000
B        0.438608281   0.557552002   0.000000000
B        0.440907561   0.722745857   0.000000000
B        0.442194923   0.888891594   0.000000000
B        0.610508450   0.052737366   0.000000000
B        0.614068829   0.218435805   0.000000000
N        0.613674415   0.382533113   0.000000000
B        0.587064857   0.538575856   0.000000000
B        0.606581961   0.719656452   0.000000000
B        0.608908826   0.886646720   0.000000000
B        0.777157495   0.051380977   0.000000000
B        0.778819020   0.217348414   0.000000000
B        0.777723025   0.382079847   0.000000000
B        0.767478170   0.546080990   0.000000000
B        0.767224143   0.710861276   0.000000000
B        0.775008356   0.883906899   0.000000000
B        0.943936790   0.052207486   0.000000000
B        0.944840808   0.219065254   0.000000000
B        0.943446208   0.385667633   0.000000000
B        0.939693005   0.551852883   0.000000000
B        0.938124879   0.716590209   0.000000000
B        0.940541477   0.883663063   0.000000000
N        0.055768169   0.109608911   0.000000000
N        0.055813142   0.275910404   0.000000000
N        0.053776312   0.442585315   0.000000000
N        0.051082506   0.608994129   0.000000000
N        0.050745313   0.774950811   0.000000000
N        0.053609306   0.942672354   0.000000000
N        0.225858169   0.115049423   0.000000000
N        0.224041798   0.278764940   0.000000000
N        0.219889447   0.444140251   0.000000000
N        0.218132486   0.610678395   0.000000000
N        0.218761679   0.777443874   0.000000000
N        0.221189783   0.945401608   0.000000000
N        0.391841872   0.115552810   0.000000000
N        0.400992493   0.291173636   0.000000000
N        0.386523398   0.447339924   0.000000000
N        0.383892741   0.612231756   0.000000000
N        0.385494473   0.778049148   0.000000000
N        0.387224255   0.945117580   0.000000000
N        0.555463950   0.108662054   0.000000000
N        0.562739691   0.277321826   0.000000000
N        0.548842853   0.609681435   0.000000000
N        0.552021507   0.776270443   0.000000000
N        0.553576161   0.942424375   0.000000000
N        0.721815766   0.106854984   0.000000000
N        0.723772862   0.272325949   0.000000000
N        0.718882077   0.433454359   0.000000000
N        0.705088267   0.595263013   0.000000000
N        0.717363681   0.772135048   0.000000000
N        0.720344646   0.940413549   0.000000000
N        0.888538953   0.107674328   0.000000000
N        0.889332172   0.274379110   0.000000000
N        0.887491525   0.440692336   0.000000000
N        0.880617345   0.604309677   0.000000000
N        0.881139205   0.770316436   0.000000000
N        0.886498360   0.940361261   0.000000000
End final coordinates



     Writing output data file BN.save
 
     init_run     :      5.93s CPU      6.40s WALL (       1 calls)
     electrons    :    139.03s CPU    140.65s WALL (       3 calls)
     update_pot   :      2.06s CPU      2.13s WALL (       2 calls)
     forces       :      3.42s CPU      3.47s WALL (       3 calls)

     Called by init_run:
     wfcinit      :      2.02s CPU      2.07s WALL (       1 calls)
     potinit      :      0.81s CPU      0.84s WALL (       1 calls)

     Called by electrons:
     c_bands      :    119.25s CPU    120.52s WALL (      29 calls)
     sum_band     :     11.87s CPU     11.92s WALL (      29 calls)
     v_of_rho     :      5.98s CPU      6.00s WALL (      30 calls)
     mix_rho      :      1.20s CPU      1.25s WALL (      29 calls)

     Called by c_bands:
     init_us_2    :      1.10s CPU      1.11s WALL (      59 calls)
     cegterg      :    113.17s CPU    114.43s WALL (      29 calls)

     Called by sum_band:

     Called by *egterg:
     h_psi        :     79.00s CPU     79.17s WALL (     146 calls)
     g_psi        :      0.33s CPU      0.33s WALL (     116 calls)
     cdiaghg      :      7.06s CPU      7.31s WALL (     141 calls)

     Called by h_psi:
     h_psi:pot    :     78.16s CPU     78.34s WALL (     146 calls)
     h_psi:calbec :     11.63s CPU     11.67s WALL (     146 calls)
     vloc_psi     :     54.71s CPU     54.85s WALL (     146 calls)
     add_vuspsi   :     11.82s CPU     11.82s WALL (     146 calls)

     General routines
     calbec       :     13.15s CPU     13.19s WALL (     158 calls)
     fft          :      2.74s CPU      2.94s WALL (     635 calls)
     fftw         :     56.23s CPU     56.39s WALL (   30709 calls)
 
     Parallel routines
     fft_scatter  :     26.31s CPU     26.42s WALL (   31344 calls)
 
     PWSCF        :  2m34.67s CPU     2m40.18s WALL

 
   This run was terminated on:  21: 5:55  28Apr2020            

=------------------------------------------------------------------------------=
   JOB DONE.
=------------------------------------------------------------------------------=
