
     Program PWSCF v.6.1 (svn rev. 13369) starts on 12May2020 at 10:31:24 

     This program is part of the open-source Quantum ESPRESSO suite
     for quantum simulation of materials; please cite
         "P. Giannozzi et al., J. Phys.:Condens. Matter 21 395502 (2009);
          URL http://www.quantum-espresso.org", 
     in publications or presentations arising from this work. More details at
     http://www.quantum-espresso.org/quote

     Parallel version (MPI), running on    96 processors
     K-points division:     npool     =       6
     R & G space division:  proc/nbgrp/npool/nimage =      16
     Reading input from scf.in
Warning: card &IONS ignored
Warning: card / ignored

     Current dimensions of program PWSCF are:
     Max number of different atomic species (ntypx) = 10
     Max number of k-points (npk) =  40000
     Max angular momentum in pseudopotentials (lmaxx) =  3

     Subspace diagonalization in iterative solution of the eigenvalue problem:
     a serial algorithm will be used

 
     Parallelization info
     --------------------
     sticks:   dense  smooth     PW     G-vecs:    dense   smooth      PW
     Min         252     252     67                12125    12125    1669
     Max         254     254     68                12129    12129    1672
     Sum        4049    4049   1085               194039   194039   26745
 


     bravais-lattice index     =            1
     lattice parameter (alat)  =      13.4862  a.u.
     unit-cell volume          =    2452.8358 (a.u.)^3
     number of atoms/cell      =           63
     number of atomic types    =            2
     number of electrons       =       254.00
     number of Kohn-Sham states=          152
     kinetic-energy cutoff     =      70.0000  Ry
     charge density cutoff     =     280.0000  Ry
     convergence threshold     =      1.0E-06
     mixing beta               =       0.5000
     number of iterations used =            8  plain     mixing
     Exchange-correlation      = PBE ( 1  4  3  4 0 0)

     celldm(1)=  13.486197  celldm(2)=   0.000000  celldm(3)=   0.000000
     celldm(4)=   0.000000  celldm(5)=   0.000000  celldm(6)=   0.000000

     crystal axes: (cart. coord. in units of alat)
               a(1) = (   1.000000   0.000000   0.000000 )  
               a(2) = (   0.000000   1.000000   0.000000 )  
               a(3) = (   0.000000   0.000000   1.000000 )  

     reciprocal axes: (cart. coord. in units 2 pi/alat)
               b(1) = (  1.000000  0.000000  0.000000 )  
               b(2) = (  0.000000  1.000000  0.000000 )  
               b(3) = (  0.000000  0.000000  1.000000 )  


     PseudoPot. # 1 for C  read from file:
     /home/tjsmart/Pseudo/C_ONCV_PBE-1.0.upf
     MD5 check sum: 72b63e32b2fd29504de26a4901699f60
     Pseudo is Norm-conserving, Zval =  4.0
     Generated using ONCVPSP code by D. R. Hamann
     Using radial grid of 1248 points,  4 beta functions with: 
                l(1) =   0
                l(2) =   0
                l(3) =   1
                l(4) =   1

     PseudoPot. # 2 for N  read from file:
     /home/tjsmart/Pseudo/N_ONCV_PBE-1.0.upf
     MD5 check sum: 09890da6b2972017450f7114a6086fad
     Pseudo is Norm-conserving, Zval =  5.0
     Generated using ONCVPSP code by D. R. Hamann
     Using radial grid of 1058 points,  4 beta functions with: 
                l(1) =   0
                l(2) =   0
                l(3) =   1
                l(4) =   1

     atomic species   valence    mass     pseudopotential
        C              4.00    12.01110     C ( 1.00)
        N              5.00    14.00670     N ( 1.00)

     Starting magnetic structure 
     atomic species   magnetization
        C            0.500
        N            0.500

      6 Sym. Ops. (no inversion) found


                                    s                        frac. trans.

      isym =  1     identity                                     

 cryst.   s( 1) = (     1          0          0      )
                  (     0          1          0      )
                  (     0          0          1      )

 cart.    s( 1) = (  1.0000000  0.0000000  0.0000000 )
                  (  0.0000000  1.0000000  0.0000000 )
                  (  0.0000000  0.0000000  1.0000000 )


      isym =  2     120 deg rotation - cart. axis [-1,-1,-1]     

 cryst.   s( 2) = (     0          0          1      )
                  (     1          0          0      )
                  (     0          1          0      )

 cart.    s( 2) = (  0.0000000  1.0000000  0.0000000 )
                  (  0.0000000  0.0000000  1.0000000 )
                  (  1.0000000  0.0000000  0.0000000 )


      isym =  3     120 deg rotation - cart. axis [1,1,1]        

 cryst.   s( 3) = (     0          1          0      )
                  (     0          0          1      )
                  (     1          0          0      )

 cart.    s( 3) = (  0.0000000  0.0000000  1.0000000 )
                  (  1.0000000  0.0000000  0.0000000 )
                  (  0.0000000  1.0000000  0.0000000 )


      isym =  4     inv. 180 deg rotation - cart. axis [1,-1,0]  

 cryst.   s( 4) = (     0          1          0      )
                  (     1          0          0      )
                  (     0          0          1      )

 cart.    s( 4) = (  0.0000000  1.0000000  0.0000000 )
                  (  1.0000000  0.0000000  0.0000000 )
                  (  0.0000000  0.0000000  1.0000000 )


      isym =  5     inv. 180 deg rotation - cart. axis [-1,0,1]  

 cryst.   s( 5) = (     0          0          1      )
                  (     0          1          0      )
                  (     1          0          0      )

 cart.    s( 5) = (  0.0000000  0.0000000  1.0000000 )
                  (  0.0000000  1.0000000  0.0000000 )
                  (  1.0000000  0.0000000  0.0000000 )


      isym =  6     inv. 180 deg rotation - cart. axis [0,1,-1]  

 cryst.   s( 6) = (     1          0          0      )
                  (     0          0          1      )
                  (     0          1          0      )

 cart.    s( 6) = (  1.0000000  0.0000000  0.0000000 )
                  (  0.0000000  0.0000000  1.0000000 )
                  (  0.0000000  1.0000000  0.0000000 )


     point group C_3v (3m)  
     there are  3 classes
     the character table:

       E     2C3   3s_v 
A_1    1.00  1.00  1.00
A_2    1.00  1.00 -1.00
E      2.00 -1.00  0.00

     the symmetry operations in each class and the name of the first element:

     E        1
          identity                                               
     2C3      2    3
          120 deg rotation - cart. axis [-1,-1,-1]               
     3s_v     4    5    6
          inv. 180 deg rotation - cart. axis [1,-1,0]            

   Cartesian axes

     site n.     atom                  positions (alat units)
         1           C   tau(   1) = (   0.3757766   0.3757766   0.8735823  )
         2           C   tau(   2) = (   0.5002498   0.0004187   0.0004187  )
         3           C   tau(   3) = (   0.4999857  -0.0004113   0.4999857  )
         4           C   tau(   4) = (   0.0004187   0.5002498   0.0004187  )
         5           C   tau(   5) = (  -0.0004113   0.4999857   0.4999857  )
         6           C   tau(   6) = (  -0.0001215  -0.0001215  -0.0001215  )
         7           C   tau(   7) = (   0.0004187   0.0004187   0.5002498  )
         8           C   tau(   8) = (   0.2504403   0.2504403  -0.0009221  )
         9           C   tau(   9) = (   0.2513474   0.2513474   0.4962569  )
        10           C   tau(  10) = (   0.2501677   0.7491279   0.0008553  )
        11           C   tau(  11) = (   0.2512089   0.7485652   0.5020796  )
        12           C   tau(  12) = (   0.7491279   0.2501677   0.0008553  )
        13           C   tau(  13) = (   0.7485652   0.2512089   0.5020796  )
        14           C   tau(  14) = (   0.7495183   0.7495183  -0.0008064  )
        15           C   tau(  15) = (   0.4999857   0.4999857  -0.0004113  )
        16           C   tau(  16) = (   0.7485950   0.7485950   0.4983467  )
        17           C   tau(  17) = (   0.5020796   0.2512089   0.7485652  )
        18           C   tau(  18) = (   0.5020796   0.7485652   0.2512089  )
        19           C   tau(  19) = (   0.4983467   0.7485950   0.7485950  )
        20           C   tau(  20) = (  -0.0009221   0.2504403   0.2504403  )
        21           C   tau(  21) = (   0.0008553   0.2501677   0.7491279  )
        22           C   tau(  22) = (   0.0008553   0.7491279   0.2501677  )
        23           C   tau(  23) = (  -0.0008064   0.7495183   0.7495183  )
        24           C   tau(  24) = (   0.2513474   0.4962569   0.2513474  )
        25           C   tau(  25) = (   0.2512089   0.5020796   0.7485652  )
        26           C   tau(  26) = (   0.2504403  -0.0009221   0.2504403  )
        27           C   tau(  27) = (   0.2501677   0.0008553   0.7491279  )
        28           C   tau(  28) = (   0.7485652   0.5020796   0.2512089  )
        29           C   tau(  29) = (   0.7485950   0.4983467   0.7485950  )
        30           C   tau(  30) = (   0.4962569   0.2513474   0.2513474  )
        31           C   tau(  31) = (   0.7491279   0.0008553   0.2501677  )
        32           C   tau(  32) = (   0.6242646   0.8737038   0.6242646  )
        33           C   tau(  33) = (   0.6361377   0.3627458   0.6361377  )
        34           C   tau(  34) = (   0.3756999   0.8762203   0.8762203  )
        35           C   tau(  35) = (   0.3757766   0.8735823   0.3757766  )
        36           C   tau(  36) = (   0.8762203   0.3756999   0.8762203  )
        37           C   tau(  37) = (   0.8735823   0.3757766   0.3757766  )
        38           C   tau(  38) = (   0.8745012   0.8745012   0.8745012  )
        39           C   tau(  39) = (   0.8762203   0.8762203   0.3756999  )
        40           C   tau(  40) = (   0.1253710   0.1253710   0.8744146  )
        41           C   tau(  41) = (   0.1245202   0.1245202   0.3748727  )
        42           C   tau(  42) = (   0.1236457   0.6243394   0.8761297  )
        43           C   tau(  43) = (   0.1266123   0.6234354   0.3763806  )
        44           C   tau(  44) = (   0.6243394   0.1236457   0.8761297  )
        45           C   tau(  45) = (   0.6234354   0.1266123   0.3763806  )
        46           C   tau(  46) = (   0.6243394   0.8761297   0.1236457  )
        47           C   tau(  47) = (   0.6242646   0.6242646   0.8737038  )
        48           C   tau(  48) = (   0.3748727   0.1245202   0.1245202  )
        49           C   tau(  49) = (   0.3763806   0.1266123   0.6234354  )
        50           C   tau(  50) = (   0.3763806   0.6234354   0.1266123  )
        51           C   tau(  51) = (   0.3627458   0.6361377   0.6361377  )
        52           C   tau(  52) = (   0.8744146   0.1253710   0.1253710  )
        53           C   tau(  53) = (   0.8761297   0.1236457   0.6243394  )
        54           C   tau(  54) = (   0.8761297   0.6243394   0.1236457  )
        55           C   tau(  55) = (   0.8737038   0.6242646   0.6242646  )
        56           C   tau(  56) = (   0.1245202   0.3748727   0.1245202  )
        57           C   tau(  57) = (   0.1266123   0.3763806   0.6234354  )
        58           C   tau(  58) = (   0.1253710   0.8744146   0.1253710  )
        59           C   tau(  59) = (   0.1236457   0.8761297   0.6243394  )
        60           C   tau(  60) = (   0.6234354   0.3763806   0.1266123  )
        61           C   tau(  61) = (   0.6361377   0.6361377   0.3627458  )
        62           C   tau(  62) = (   0.7495183  -0.0008064   0.7495183  )
        63           N   tau(  63) = (   0.3676010   0.3676010   0.3676010  )

   Crystallographic axes

     site n.     atom                  positions (cryst. coord.)
         1           C   tau(   1) = (  0.3757766  0.3757766  0.8735823  )
         2           C   tau(   2) = (  0.5002498  0.0004187  0.0004187  )
         3           C   tau(   3) = (  0.4999857 -0.0004113  0.4999857  )
         4           C   tau(   4) = (  0.0004187  0.5002498  0.0004187  )
         5           C   tau(   5) = ( -0.0004113  0.4999857  0.4999857  )
         6           C   tau(   6) = ( -0.0001215 -0.0001215 -0.0001215  )
         7           C   tau(   7) = (  0.0004187  0.0004187  0.5002498  )
         8           C   tau(   8) = (  0.2504403  0.2504403 -0.0009221  )
         9           C   tau(   9) = (  0.2513474  0.2513474  0.4962569  )
        10           C   tau(  10) = (  0.2501677  0.7491279  0.0008553  )
        11           C   tau(  11) = (  0.2512089  0.7485652  0.5020796  )
        12           C   tau(  12) = (  0.7491279  0.2501677  0.0008553  )
        13           C   tau(  13) = (  0.7485652  0.2512089  0.5020796  )
        14           C   tau(  14) = (  0.7495183  0.7495183 -0.0008064  )
        15           C   tau(  15) = (  0.4999857  0.4999857 -0.0004113  )
        16           C   tau(  16) = (  0.7485950  0.7485950  0.4983467  )
        17           C   tau(  17) = (  0.5020796  0.2512089  0.7485652  )
        18           C   tau(  18) = (  0.5020796  0.7485652  0.2512089  )
        19           C   tau(  19) = (  0.4983467  0.7485950  0.7485950  )
        20           C   tau(  20) = ( -0.0009221  0.2504403  0.2504403  )
        21           C   tau(  21) = (  0.0008553  0.2501677  0.7491279  )
        22           C   tau(  22) = (  0.0008553  0.7491279  0.2501677  )
        23           C   tau(  23) = ( -0.0008064  0.7495183  0.7495183  )
        24           C   tau(  24) = (  0.2513474  0.4962569  0.2513474  )
        25           C   tau(  25) = (  0.2512089  0.5020796  0.7485652  )
        26           C   tau(  26) = (  0.2504403 -0.0009221  0.2504403  )
        27           C   tau(  27) = (  0.2501677  0.0008553  0.7491279  )
        28           C   tau(  28) = (  0.7485652  0.5020796  0.2512089  )
        29           C   tau(  29) = (  0.7485950  0.4983467  0.7485950  )
        30           C   tau(  30) = (  0.4962569  0.2513474  0.2513474  )
        31           C   tau(  31) = (  0.7491279  0.0008553  0.2501677  )
        32           C   tau(  32) = (  0.6242646  0.8737038  0.6242646  )
        33           C   tau(  33) = (  0.6361377  0.3627458  0.6361377  )
        34           C   tau(  34) = (  0.3756999  0.8762203  0.8762203  )
        35           C   tau(  35) = (  0.3757766  0.8735823  0.3757766  )
        36           C   tau(  36) = (  0.8762203  0.3756999  0.8762203  )
        37           C   tau(  37) = (  0.8735823  0.3757766  0.3757766  )
        38           C   tau(  38) = (  0.8745012  0.8745012  0.8745012  )
        39           C   tau(  39) = (  0.8762203  0.8762203  0.3756999  )
        40           C   tau(  40) = (  0.1253710  0.1253710  0.8744146  )
        41           C   tau(  41) = (  0.1245202  0.1245202  0.3748727  )
        42           C   tau(  42) = (  0.1236457  0.6243394  0.8761297  )
        43           C   tau(  43) = (  0.1266123  0.6234354  0.3763806  )
        44           C   tau(  44) = (  0.6243394  0.1236457  0.8761297  )
        45           C   tau(  45) = (  0.6234354  0.1266123  0.3763806  )
        46           C   tau(  46) = (  0.6243394  0.8761297  0.1236457  )
        47           C   tau(  47) = (  0.6242646  0.6242646  0.8737038  )
        48           C   tau(  48) = (  0.3748727  0.1245202  0.1245202  )
        49           C   tau(  49) = (  0.3763806  0.1266123  0.6234354  )
        50           C   tau(  50) = (  0.3763806  0.6234354  0.1266123  )
        51           C   tau(  51) = (  0.3627458  0.6361377  0.6361377  )
        52           C   tau(  52) = (  0.8744146  0.1253710  0.1253710  )
        53           C   tau(  53) = (  0.8761297  0.1236457  0.6243394  )
        54           C   tau(  54) = (  0.8761297  0.6243394  0.1236457  )
        55           C   tau(  55) = (  0.8737038  0.6242646  0.6242646  )
        56           C   tau(  56) = (  0.1245202  0.3748727  0.1245202  )
        57           C   tau(  57) = (  0.1266123  0.3763806  0.6234354  )
        58           C   tau(  58) = (  0.1253710  0.8744146  0.1253710  )
        59           C   tau(  59) = (  0.1236457  0.8761297  0.6243394  )
        60           C   tau(  60) = (  0.6234354  0.3763806  0.1266123  )
        61           C   tau(  61) = (  0.6361377  0.6361377  0.3627458  )
        62           C   tau(  62) = (  0.7495183 -0.0008064  0.7495183  )
        63           N   tau(  63) = (  0.3676010  0.3676010  0.3676010  )

     number of k points=     6
                       cart. coord. in units 2pi/alat
        k(    1) = (   0.0000000   0.0000000   0.0000000), wk =   0.0370370
        k(    2) = (   0.0000000   0.0000000   0.3333333), wk =   0.2222222
        k(    3) = (   0.0000000   0.3333333   0.3333333), wk =   0.2222222
        k(    4) = (   0.3333333   0.3333333   0.3333333), wk =   0.0740741
        k(    5) = (  -0.3333333   0.0000000   0.3333333), wk =   0.2222222
        k(    6) = (   0.3333333  -0.3333333   0.3333333), wk =   0.2222222

                       cryst. coord.
        k(    1) = (   0.0000000   0.0000000   0.0000000), wk =   0.0370370
        k(    2) = (   0.0000000   0.0000000   0.3333333), wk =   0.2222222
        k(    3) = (   0.0000000   0.3333333   0.3333333), wk =   0.2222222
        k(    4) = (   0.3333333   0.3333333   0.3333333), wk =   0.0740741
        k(    5) = (  -0.3333333   0.0000000   0.3333333), wk =   0.2222222
        k(    6) = (   0.3333333  -0.3333333   0.3333333), wk =   0.2222222

     Dense  grid:   194039 G-vectors     FFT dimensions: (  72,  72,  72)

     Occupations read from input 

      Spin-up

        1.0000   1.0000   1.0000   1.0000   1.0000   1.0000   1.0000   1.0000
        1.0000   1.0000   1.0000   1.0000   1.0000   1.0000   1.0000   1.0000
        1.0000   1.0000   1.0000   1.0000   1.0000   1.0000   1.0000   1.0000
        1.0000   1.0000   1.0000   1.0000   1.0000   1.0000   1.0000   1.0000
        1.0000   1.0000   1.0000   1.0000   1.0000   1.0000   1.0000   1.0000
        1.0000   1.0000   1.0000   1.0000   1.0000   1.0000   1.0000   1.0000
        1.0000   1.0000   1.0000   1.0000   1.0000   1.0000   1.0000   1.0000
        1.0000   1.0000   1.0000   1.0000   1.0000   1.0000   1.0000   1.0000
        1.0000   1.0000   1.0000   1.0000   1.0000   1.0000   1.0000   1.0000
        1.0000   1.0000   1.0000   1.0000   1.0000   1.0000   1.0000   1.0000
        1.0000   1.0000   1.0000   1.0000   1.0000   1.0000   1.0000   1.0000
        1.0000   1.0000   1.0000   1.0000   1.0000   1.0000   1.0000   1.0000
        1.0000   1.0000   1.0000   1.0000   1.0000   1.0000   1.0000   1.0000
        1.0000   1.0000   1.0000   1.0000   1.0000   1.0000   1.0000   1.0000
        1.0000   1.0000   1.0000   1.0000   1.0000   1.0000   1.0000   1.0000
        1.0000   1.0000   1.0000   1.0000   1.0000   1.0000   1.0000   1.0000
        0.0000   0.0000   0.0000   0.0000   0.0000   0.0000   0.0000   0.0000
        0.0000   0.0000   0.0000   0.0000   0.0000   0.0000   0.0000   0.0000
        0.0000   0.0000   0.0000   0.0000   0.0000   0.0000   0.0000   0.0000

      Spin-down

        1.0000   1.0000   1.0000   1.0000   1.0000   1.0000   1.0000   1.0000
        1.0000   1.0000   1.0000   1.0000   1.0000   1.0000   1.0000   1.0000
        1.0000   1.0000   1.0000   1.0000   1.0000   1.0000   1.0000   1.0000
        1.0000   1.0000   1.0000   1.0000   1.0000   1.0000   1.0000   1.0000
        1.0000   1.0000   1.0000   1.0000   1.0000   1.0000   1.0000   1.0000
        1.0000   1.0000   1.0000   1.0000   1.0000   1.0000   1.0000   1.0000
        1.0000   1.0000   1.0000   1.0000   1.0000   1.0000   1.0000   1.0000
        1.0000   1.0000   1.0000   1.0000   1.0000   1.0000   1.0000   1.0000
        1.0000   1.0000   1.0000   1.0000   1.0000   1.0000   1.0000   1.0000
        1.0000   1.0000   1.0000   1.0000   1.0000   1.0000   1.0000   1.0000
        1.0000   1.0000   1.0000   1.0000   1.0000   1.0000   1.0000   1.0000
        1.0000   1.0000   1.0000   1.0000   1.0000   1.0000   1.0000   1.0000
        1.0000   1.0000   1.0000   1.0000   1.0000   1.0000   1.0000   1.0000
        1.0000   1.0000   1.0000   1.0000   1.0000   1.0000   1.0000   1.0000
        1.0000   1.0000   1.0000   1.0000   1.0000   1.0000   1.0000   1.0000
        1.0000   1.0000   1.0000   1.0000   1.0000   0.0000   1.0000   0.0000
        0.0000   0.0000   0.0000   0.0000   0.0000   0.0000   0.0000   0.0000
        0.0000   0.0000   0.0000   0.0000   0.0000   0.0000   0.0000   0.0000
        0.0000   0.0000   0.0000   0.0000   0.0000   0.0000   0.0000   0.0000

     Estimated max dynamical RAM per process >      60.23MB

     Estimated total allocated dynamical RAM >    5782.56MB
     Generating pointlists ...
     new r_m :   0.0856 (alat units)  1.1543 (a.u.) for type    1
     new r_m :   0.0861 (alat units)  1.1614 (a.u.) for type    2

     Initial potential from superposition of free atoms

     starting charge  252.99722, renormalised to  254.00000
     Starting wfc are  252 randomized atomic wfcs

     total cpu time spent up to now is        3.6 secs

     per-process dynamical memory:    59.5 Mb

     Self-consistent Calculation

     iteration #  1     ecut=    70.00 Ry     beta=0.50
     Davidson diagonalization with overlap
     ethr =  1.00E-02,  avg # of iterations =  3.0

     total cpu time spent up to now is        5.9 secs

     total energy              =    -722.45863914 Ry
     Harris-Foulkes estimate   =    -717.56043222 Ry
     estimated scf accuracy    <       6.66637066 Ry

     total magnetization       =     2.00 Bohr mag/cell
     absolute magnetization    =     3.66 Bohr mag/cell

     iteration #  2     ecut=    70.00 Ry     beta=0.50
     Davidson diagonalization with overlap
     ethr =  2.62E-03,  avg # of iterations =  2.0

     total cpu time spent up to now is        7.3 secs

     total energy              =    -724.29517873 Ry
     Harris-Foulkes estimate   =    -722.83303475 Ry
     estimated scf accuracy    <       1.43895365 Ry

     total magnetization       =     2.00 Bohr mag/cell
     absolute magnetization    =     2.50 Bohr mag/cell

     iteration #  3     ecut=    70.00 Ry     beta=0.50
     Davidson diagonalization with overlap
     ethr =  5.67E-04,  avg # of iterations =  7.3

     total cpu time spent up to now is       10.8 secs

     total energy              =    -724.55045966 Ry
     Harris-Foulkes estimate   =    -724.57951103 Ry
     estimated scf accuracy    <       0.62576157 Ry

     total magnetization       =     2.00 Bohr mag/cell
     absolute magnetization    =     2.14 Bohr mag/cell

     iteration #  4     ecut=    70.00 Ry     beta=0.50
     Davidson diagonalization with overlap
     ethr =  2.46E-04,  avg # of iterations =  6.3

     total cpu time spent up to now is       13.7 secs

     total energy              =    -724.68427121 Ry
     Harris-Foulkes estimate   =    -724.67318175 Ry
     estimated scf accuracy    <       0.02815808 Ry

     total magnetization       =     2.00 Bohr mag/cell
     absolute magnetization    =     2.14 Bohr mag/cell

     iteration #  5     ecut=    70.00 Ry     beta=0.50
     Davidson diagonalization with overlap
     ethr =  1.11E-05,  avg # of iterations =  9.5

     total cpu time spent up to now is       18.8 secs

     total energy              =    -724.69223779 Ry
     Harris-Foulkes estimate   =    -724.69170390 Ry
     estimated scf accuracy    <       0.00540156 Ry

     total magnetization       =     2.00 Bohr mag/cell
     absolute magnetization    =     2.16 Bohr mag/cell

     iteration #  6     ecut=    70.00 Ry     beta=0.50
     Davidson diagonalization with overlap
     ethr =  2.13E-06,  avg # of iterations =  8.4

     total cpu time spent up to now is       23.0 secs

     total energy              =    -724.69333051 Ry
     Harris-Foulkes estimate   =    -724.69339061 Ry
     estimated scf accuracy    <       0.00057080 Ry

     total magnetization       =     2.00 Bohr mag/cell
     absolute magnetization    =     2.17 Bohr mag/cell

     iteration #  7     ecut=    70.00 Ry     beta=0.50
     Davidson diagonalization with overlap
     ethr =  2.25E-07,  avg # of iterations =  3.5

     total cpu time spent up to now is       25.1 secs

     total energy              =    -724.69351839 Ry
     Harris-Foulkes estimate   =    -724.69349722 Ry
     estimated scf accuracy    <       0.00008874 Ry

     total magnetization       =     2.00 Bohr mag/cell
     absolute magnetization    =     2.18 Bohr mag/cell

     iteration #  8     ecut=    70.00 Ry     beta=0.50
     Davidson diagonalization with overlap
     ethr =  3.49E-08,  avg # of iterations =  3.1

     total cpu time spent up to now is       27.1 secs

     total energy              =    -724.69356175 Ry
     Harris-Foulkes estimate   =    -724.69354499 Ry
     estimated scf accuracy    <       0.00001659 Ry

     total magnetization       =     2.00 Bohr mag/cell
     absolute magnetization    =     2.19 Bohr mag/cell

     iteration #  9     ecut=    70.00 Ry     beta=0.50
     Davidson diagonalization with overlap
     ethr =  6.53E-09,  avg # of iterations =  3.8

     total cpu time spent up to now is       29.3 secs

     total energy              =    -724.69357450 Ry
     Harris-Foulkes estimate   =    -724.69356571 Ry
     estimated scf accuracy    <       0.00000479 Ry

     total magnetization       =     2.00 Bohr mag/cell
     absolute magnetization    =     2.20 Bohr mag/cell

     iteration # 10     ecut=    70.00 Ry     beta=0.50
     Davidson diagonalization with overlap
     ethr =  1.89E-09,  avg # of iterations =  4.6
 
     Magnetic moment per site:
     atom:    1    charge:    1.8296    magn:    0.0072    constr:    0.0000
     atom:    2    charge:    1.8501    magn:    0.0084    constr:    0.0000
     atom:    3    charge:    1.8380    magn:   -0.0014    constr:    0.0000
     atom:    4    charge:    1.8501    magn:    0.0084    constr:    0.0000
     atom:    5    charge:    1.8380    magn:   -0.0014    constr:    0.0000
     atom:    6    charge:    1.8274    magn:   -0.0000    constr:    0.0000
     atom:    7    charge:    1.8501    magn:    0.0084    constr:    0.0000
     atom:    8    charge:    1.8310    magn:   -0.0007    constr:    0.0000
     atom:    9    charge:    1.8060    magn:    0.0001    constr:    0.0000
     atom:   10    charge:    1.8257    magn:   -0.0014    constr:    0.0000
     atom:   11    charge:    1.8410    magn:   -0.0030    constr:    0.0000
     atom:   12    charge:    1.8257    magn:   -0.0014    constr:    0.0000
     atom:   13    charge:    1.8410    magn:   -0.0030    constr:    0.0000
     atom:   14    charge:    1.8298    magn:   -0.0016    constr:    0.0000
     atom:   15    charge:    1.8380    magn:   -0.0014    constr:    0.0000
     atom:   16    charge:    1.8365    magn:   -0.0002    constr:    0.0000
     atom:   17    charge:    1.8410    magn:   -0.0030    constr:    0.0000
     atom:   18    charge:    1.8410    magn:   -0.0030    constr:    0.0000
     atom:   19    charge:    1.8365    magn:   -0.0002    constr:    0.0000
     atom:   20    charge:    1.8310    magn:   -0.0007    constr:    0.0000
     atom:   21    charge:    1.8257    magn:   -0.0014    constr:    0.0000
     atom:   22    charge:    1.8257    magn:   -0.0014    constr:    0.0000
     atom:   23    charge:    1.8298    magn:   -0.0016    constr:    0.0000
     atom:   24    charge:    1.8060    magn:    0.0001    constr:    0.0000
     atom:   25    charge:    1.8410    magn:   -0.0030    constr:    0.0000
     atom:   26    charge:    1.8310    magn:   -0.0007    constr:    0.0000
     atom:   27    charge:    1.8257    magn:   -0.0014    constr:    0.0000
     atom:   28    charge:    1.8410    magn:   -0.0030    constr:    0.0000
     atom:   29    charge:    1.8365    magn:   -0.0002    constr:    0.0000
     atom:   30    charge:    1.8060    magn:    0.0001    constr:    0.0000
     atom:   31    charge:    1.8257    magn:   -0.0014    constr:    0.0000
     atom:   32    charge:    1.8309    magn:    0.0061    constr:    0.0000
     atom:   33    charge:    1.8639    magn:    0.2032    constr:    0.0000
     atom:   34    charge:    1.8278    magn:    0.0165    constr:    0.0000
     atom:   35    charge:    1.8296    magn:    0.0072    constr:    0.0000
     atom:   36    charge:    1.8278    magn:    0.0165    constr:    0.0000
     atom:   37    charge:    1.8296    magn:    0.0072    constr:    0.0000
     atom:   38    charge:    1.8342    magn:    0.0045    constr:    0.0000
     atom:   39    charge:    1.8278    magn:    0.0165    constr:    0.0000
     atom:   40    charge:    1.8336    magn:    0.0037    constr:    0.0000
     atom:   41    charge:    1.8374    magn:    0.0087    constr:    0.0000
     atom:   42    charge:    1.8340    magn:    0.0177    constr:    0.0000
     atom:   43    charge:    1.8283    magn:    0.0047    constr:    0.0000
     atom:   44    charge:    1.8340    magn:    0.0177    constr:    0.0000
     atom:   45    charge:    1.8283    magn:    0.0047    constr:    0.0000
     atom:   46    charge:    1.8340    magn:    0.0177    constr:    0.0000
     atom:   47    charge:    1.8309    magn:    0.0061    constr:    0.0000
     atom:   48    charge:    1.8374    magn:    0.0087    constr:    0.0000
     atom:   49    charge:    1.8283    magn:    0.0047    constr:    0.0000
     atom:   50    charge:    1.8283    magn:    0.0047    constr:    0.0000
     atom:   51    charge:    1.8639    magn:    0.2032    constr:    0.0000
     atom:   52    charge:    1.8336    magn:    0.0037    constr:    0.0000
     atom:   53    charge:    1.8340    magn:    0.0177    constr:    0.0000
     atom:   54    charge:    1.8340    magn:    0.0177    constr:    0.0000
     atom:   55    charge:    1.8309    magn:    0.0061    constr:    0.0000
     atom:   56    charge:    1.8374    magn:    0.0087    constr:    0.0000
     atom:   57    charge:    1.8283    magn:    0.0047    constr:    0.0000
     atom:   58    charge:    1.8336    magn:    0.0037    constr:    0.0000
     atom:   59    charge:    1.8340    magn:    0.0177    constr:    0.0000
     atom:   60    charge:    1.8283    magn:    0.0047    constr:    0.0000
     atom:   61    charge:    1.8639    magn:    0.2032    constr:    0.0000
     atom:   62    charge:    1.8298    magn:   -0.0016    constr:    0.0000
     atom:   63    charge:    2.9161    magn:    0.1235    constr:    0.0000

     total cpu time spent up to now is       32.1 secs

     End of self-consistent calculation

 ------ SPIN UP ------------


          k = 0.0000 0.0000 0.0000 ( 24207 PWs)   bands (ev):

    -8.6190  -7.1469  -6.2961  -6.2961  -6.1692  -6.1692  -5.9055  -5.0140
    -4.1549  -4.1549  -4.1352  -4.1352  -4.0366  -4.0366  -4.0150  -3.9687
    -3.8696  -3.8696  -3.3813  -2.9813  -2.6855  -2.6855  -2.1385  -0.4079
    -0.4079  -0.3651  -0.3304  -0.1882   0.1411   0.1411   0.2559   0.2559
     0.3449   0.5743   0.7903   0.7903   0.9585   0.9585   0.9609   1.0121
     1.0121   1.0464   1.3134   1.3134   3.0104   3.8056   3.8056   4.0008
     4.1842   4.1842   4.1910   4.2085   4.2321   4.2321   4.3920   4.3920
     4.4425   4.4425   4.5557   4.6177   4.6225   4.6225   4.6383   4.7185
     4.7185   4.8606   4.9205   4.9205   4.9878   5.1671   5.1671   5.2381
     5.3136   5.3136   5.3575   5.3925   5.3925   5.9825   5.9825   6.0197
     6.5813   6.5813   6.6840   6.9003   6.9716   6.9716   7.4513   8.2492
     8.2492   8.3551   8.4271   8.4271   8.5995   8.5995   8.7533   8.7583
     8.7709   8.7709   8.8372   8.8372   8.8581   9.2232   9.2274   9.2274
     9.6221   9.6221   9.8560   9.8624   9.8624   9.8674   9.8770   9.9194
     9.9194   9.9527   9.9529   9.9529  10.0587  10.0587  10.2658  10.2701
    10.2701  10.5574  12.1585  12.3789  12.3789  13.5831  14.9014  14.9014
    17.2129  17.3120  17.3120  17.4561  17.5188  17.5188  17.7908  17.8757
    17.8757  17.9801  17.9801  18.2990  18.8578  18.8578  18.9211  20.5060
    20.7341  20.7342  20.8026  20.8576  20.8576  20.9521  20.9522  20.9589

     occupation numbers 
     1.0000   1.0000   1.0000   1.0000   1.0000   1.0000   1.0000   1.0000
     1.0000   1.0000   1.0000   1.0000   1.0000   1.0000   1.0000   1.0000
     1.0000   1.0000   1.0000   1.0000   1.0000   1.0000   1.0000   1.0000
     1.0000   1.0000   1.0000   1.0000   1.0000   1.0000   1.0000   1.0000
     1.0000   1.0000   1.0000   1.0000   1.0000   1.0000   1.0000   1.0000
     1.0000   1.0000   1.0000   1.0000   1.0000   1.0000   1.0000   1.0000
     1.0000   1.0000   1.0000   1.0000   1.0000   1.0000   1.0000   1.0000
     1.0000   1.0000   1.0000   1.0000   1.0000   1.0000   1.0000   1.0000
     1.0000   1.0000   1.0000   1.0000   1.0000   1.0000   1.0000   1.0000
     1.0000   1.0000   1.0000   1.0000   1.0000   1.0000   1.0000   1.0000
     1.0000   1.0000   1.0000   1.0000   1.0000   1.0000   1.0000   1.0000
     1.0000   1.0000   1.0000   1.0000   1.0000   1.0000   1.0000   1.0000
     1.0000   1.0000   1.0000   1.0000   1.0000   1.0000   1.0000   1.0000
     1.0000   1.0000   1.0000   1.0000   1.0000   1.0000   1.0000   1.0000
     1.0000   1.0000   1.0000   1.0000   1.0000   1.0000   1.0000   1.0000
     1.0000   1.0000   1.0000   1.0000   1.0000   1.0000   1.0000   1.0000
     0.0000   0.0000   0.0000   0.0000   0.0000   0.0000   0.0000   0.0000
     0.0000   0.0000   0.0000   0.0000   0.0000   0.0000   0.0000   0.0000
     0.0000   0.0000   0.0000   0.0000   0.0000   0.0000   0.0000   0.0000

          k = 0.0000 0.0000 0.3333 ( 24280 PWs)   bands (ev):

    -8.4030  -7.6210  -6.7012  -6.0522  -5.9284  -5.8353  -5.5170  -5.3071
    -5.1754  -5.0103  -4.5382  -4.1483  -3.8349  -3.8145  -3.6967  -3.4470
    -3.2299  -3.1569  -2.9435  -2.6172  -2.5182  -2.3865  -2.3368  -1.8027
    -0.8793  -0.7094  -0.5839  -0.3690   0.1400   0.2281   0.3368   0.3939
     0.4663   0.5426   0.5571   0.6542   0.7275   0.7339   0.9714   1.4532
     1.9665   1.9985   2.1484   2.1968   2.3928   2.4643   2.4678   2.7367
     2.9366   2.9878   3.1486   3.1591   3.8573   3.9326   4.0412   4.0566
     4.2776   4.3342   4.4851   4.5315   5.0335   5.0753   5.1114   5.1908
     5.1910   5.5701   5.5947   5.6974   5.7384   6.0311   6.0812   6.1614
     6.1753   6.3066   6.3764   6.4538   6.4883   6.5762   6.6025   6.7382
     6.7468   6.8783   6.8922   6.9205   7.1265   7.1497   7.1741   7.2554
     7.3793   7.4579   7.6533   7.7596   7.8180   8.0456   8.1207   8.2654
     8.3019   8.4344   8.6241   8.6884   8.7562   9.0605   9.1559   9.3383
     9.3540   9.6119   9.6321   9.7008   9.7777   9.9051   9.9254   9.9326
     9.9514  10.0118  10.0840  10.1075  10.1753  10.2531  10.2699  10.3442
    10.3763  11.0290  11.6783  11.6822  11.9385  13.2880  14.5882  14.7536
    17.1580  17.2833  17.9294  18.2515  18.3306  18.4765  18.5046  18.5879
    18.8076  18.8276  18.9778  19.0596  19.1688  19.7867  19.8363  20.3921
    20.6378  20.6491  20.7723  20.7833  20.8200  20.8318  20.8909  20.9395

     occupation numbers 
     1.0000   1.0000   1.0000   1.0000   1.0000   1.0000   1.0000   1.0000
     1.0000   1.0000   1.0000   1.0000   1.0000   1.0000   1.0000   1.0000
     1.0000   1.0000   1.0000   1.0000   1.0000   1.0000   1.0000   1.0000
     1.0000   1.0000   1.0000   1.0000   1.0000   1.0000   1.0000   1.0000
     1.0000   1.0000   1.0000   1.0000   1.0000   1.0000   1.0000   1.0000
     1.0000   1.0000   1.0000   1.0000   1.0000   1.0000   1.0000   1.0000
     1.0000   1.0000   1.0000   1.0000   1.0000   1.0000   1.0000   1.0000
     1.0000   1.0000   1.0000   1.0000   1.0000   1.0000   1.0000   1.0000
     1.0000   1.0000   1.0000   1.0000   1.0000   1.0000   1.0000   1.0000
     1.0000   1.0000   1.0000   1.0000   1.0000   1.0000   1.0000   1.0000
     1.0000   1.0000   1.0000   1.0000   1.0000   1.0000   1.0000   1.0000
     1.0000   1.0000   1.0000   1.0000   1.0000   1.0000   1.0000   1.0000
     1.0000   1.0000   1.0000   1.0000   1.0000   1.0000   1.0000   1.0000
     1.0000   1.0000   1.0000   1.0000   1.0000   1.0000   1.0000   1.0000
     1.0000   1.0000   1.0000   1.0000   1.0000   1.0000   1.0000   1.0000
     1.0000   1.0000   1.0000   1.0000   1.0000   1.0000   1.0000   1.0000
     0.0000   0.0000   0.0000   0.0000   0.0000   0.0000   0.0000   0.0000
     0.0000   0.0000   0.0000   0.0000   0.0000   0.0000   0.0000   0.0000
     0.0000   0.0000   0.0000   0.0000   0.0000   0.0000   0.0000   0.0000

          k = 0.0000 0.3333 0.3333 ( 24236 PWs)   bands (ev):

    -8.2092  -7.4638  -7.2379  -6.6167  -6.0115  -5.6879  -5.3654  -5.0292
    -4.9943  -4.8640  -4.5182  -4.2670  -4.2348  -3.9483  -3.5727  -3.5279
    -2.8129  -2.3904  -2.3407  -2.3303  -2.2039  -2.1962  -2.0578  -1.9060
    -1.5020  -1.3262  -1.1102  -0.9269  -0.5772  -0.0560   0.0563   0.1177
     0.1629   0.4543   0.6710   1.1694   1.1800   1.3040   1.3667   1.3720
     1.4332   1.4546   1.9371   2.0536   2.1125   2.3826   2.7220   2.8139
     2.9457   3.4824   3.6392   3.6515   3.7641   3.8015   3.9567   4.0203
     4.0982   4.5303   4.6424   4.7918   5.0116   5.0204   5.1367   5.2933
     5.3267   5.5742   5.6175   5.6679   5.7309   5.9237   5.9968   6.0628
     6.1398   6.2237   6.2719   6.4778   6.5230   6.5842   6.6424   6.8344
     6.9096   6.9369   6.9960   7.0382   7.2209   7.2637   7.4761   7.6684
     7.9196   7.9219   8.0578   8.0612   8.1121   8.2164   8.2618   8.3049
     8.3318   8.4008   8.5252   8.6187   8.6772   8.7082   8.8361   8.8708
     9.0658   9.1663   9.2315   9.2983   9.4502   9.4671   9.5404   9.6314
     9.6958   9.7797   9.8964  10.0333  10.0505  10.1170  10.3782  10.6443
    10.9816  11.1858  11.5559  11.5642  12.1922  13.0824  14.5145  14.8315
    17.9979  18.1768  18.2151  18.2959  18.3386  18.7835  18.8552  18.9375
    19.1630  19.2040  19.4368  19.4708  19.6810  19.7791  19.9609  19.9819
    20.1762  20.4267  20.4653  20.4935  20.5573  20.5704  20.6108  20.6240

     occupation numbers 
     1.0000   1.0000   1.0000   1.0000   1.0000   1.0000   1.0000   1.0000
     1.0000   1.0000   1.0000   1.0000   1.0000   1.0000   1.0000   1.0000
     1.0000   1.0000   1.0000   1.0000   1.0000   1.0000   1.0000   1.0000
     1.0000   1.0000   1.0000   1.0000   1.0000   1.0000   1.0000   1.0000
     1.0000   1.0000   1.0000   1.0000   1.0000   1.0000   1.0000   1.0000
     1.0000   1.0000   1.0000   1.0000   1.0000   1.0000   1.0000   1.0000
     1.0000   1.0000   1.0000   1.0000   1.0000   1.0000   1.0000   1.0000
     1.0000   1.0000   1.0000   1.0000   1.0000   1.0000   1.0000   1.0000
     1.0000   1.0000   1.0000   1.0000   1.0000   1.0000   1.0000   1.0000
     1.0000   1.0000   1.0000   1.0000   1.0000   1.0000   1.0000   1.0000
     1.0000   1.0000   1.0000   1.0000   1.0000   1.0000   1.0000   1.0000
     1.0000   1.0000   1.0000   1.0000   1.0000   1.0000   1.0000   1.0000
     1.0000   1.0000   1.0000   1.0000   1.0000   1.0000   1.0000   1.0000
     1.0000   1.0000   1.0000   1.0000   1.0000   1.0000   1.0000   1.0000
     1.0000   1.0000   1.0000   1.0000   1.0000   1.0000   1.0000   1.0000
     1.0000   1.0000   1.0000   1.0000   1.0000   1.0000   1.0000   1.0000
     0.0000   0.0000   0.0000   0.0000   0.0000   0.0000   0.0000   0.0000
     0.0000   0.0000   0.0000   0.0000   0.0000   0.0000   0.0000   0.0000
     0.0000   0.0000   0.0000   0.0000   0.0000   0.0000   0.0000   0.0000

          k = 0.3333 0.3333 0.3333 ( 24303 PWs)   bands (ev):

    -8.0430  -7.2933  -6.9899  -6.9899  -6.3349  -6.2310  -6.2310  -5.4832
    -4.2833  -4.0432  -4.0432  -3.5776  -3.3904  -3.3904  -3.3505  -3.3505
    -3.3116  -2.9219  -2.6716  -2.6716  -1.9604  -1.9312  -1.9312  -1.5511
    -1.4652  -1.4652  -1.4014  -1.4014  -1.3472  -1.2291  -1.2291   0.0185
     0.8481   0.8481   0.9517   0.9660   0.9660   1.2675   1.8121   1.8121
     1.8691   1.8843   1.9888   1.9888   2.5531   2.5531   2.5897   2.7034
     2.7203   2.7203   3.1246   3.1246   3.5182   4.0409   4.2945   4.2945
     4.7950   4.8879   4.8879   4.9438   5.0806   5.0806   5.1307   5.2987
     5.2987   5.4026   5.4860   5.4860   5.5335   5.5335   5.6024   6.3328
     6.6593   6.6593   6.9297   6.9724   6.9815   6.9815   7.0713   7.0713
     7.1946   7.1946   7.2406   7.2455   7.2455   7.2621   7.3528   7.3528
     7.3613   7.4651   7.7273   7.7273   7.9107   7.9107   7.9617   7.9934
     8.1810   8.1810   8.2897   8.2897   8.2999   8.4311   8.4723   8.4723
     8.6725   8.6725   8.7553   9.0526   9.0825   9.5127   9.5127   9.7652
     9.7652  10.4777  10.4777  10.4781  10.4976  10.9276  10.9276  11.1222
    11.2719  11.2719  11.2818  11.6465  11.6465  12.9618  14.8106  14.8106
    18.0304  18.2256  18.2256  18.4402  18.6371  18.6371  19.1681  19.3660
    19.3660  19.5370  19.5370  19.5880  19.6068  19.6068  19.6393  19.7450
    19.7450  19.8665  19.9093  19.9093  19.9886  19.9886  20.0275  20.1385

     occupation numbers 
     1.0000   1.0000   1.0000   1.0000   1.0000   1.0000   1.0000   1.0000
     1.0000   1.0000   1.0000   1.0000   1.0000   1.0000   1.0000   1.0000
     1.0000   1.0000   1.0000   1.0000   1.0000   1.0000   1.0000   1.0000
     1.0000   1.0000   1.0000   1.0000   1.0000   1.0000   1.0000   1.0000
     1.0000   1.0000   1.0000   1.0000   1.0000   1.0000   1.0000   1.0000
     1.0000   1.0000   1.0000   1.0000   1.0000   1.0000   1.0000   1.0000
     1.0000   1.0000   1.0000   1.0000   1.0000   1.0000   1.0000   1.0000
     1.0000   1.0000   1.0000   1.0000   1.0000   1.0000   1.0000   1.0000
     1.0000   1.0000   1.0000   1.0000   1.0000   1.0000   1.0000   1.0000
     1.0000   1.0000   1.0000   1.0000   1.0000   1.0000   1.0000   1.0000
     1.0000   1.0000   1.0000   1.0000   1.0000   1.0000   1.0000   1.0000
     1.0000   1.0000   1.0000   1.0000   1.0000   1.0000   1.0000   1.0000
     1.0000   1.0000   1.0000   1.0000   1.0000   1.0000   1.0000   1.0000
     1.0000   1.0000   1.0000   1.0000   1.0000   1.0000   1.0000   1.0000
     1.0000   1.0000   1.0000   1.0000   1.0000   1.0000   1.0000   1.0000
     1.0000   1.0000   1.0000   1.0000   1.0000   1.0000   1.0000   1.0000
     0.0000   0.0000   0.0000   0.0000   0.0000   0.0000   0.0000   0.0000
     0.0000   0.0000   0.0000   0.0000   0.0000   0.0000   0.0000   0.0000
     0.0000   0.0000   0.0000   0.0000   0.0000   0.0000   0.0000   0.0000

          k =-0.3333 0.0000 0.3333 ( 24236 PWs)   bands (ev):

    -8.1952  -7.5727  -7.1123  -6.6098  -6.0541  -5.6925  -5.4018  -5.0492
    -4.9423  -4.7743  -4.5429  -4.3137  -4.2308  -4.0665  -3.6158  -3.3410
    -2.8150  -2.4329  -2.3757  -2.2966  -2.2082  -2.1571  -2.1182  -1.6767
    -1.6460  -1.3283  -1.1282  -1.0000  -0.6196  -0.0258   0.0635   0.1065
     0.2567   0.4712   0.8672   1.0283   1.1884   1.2110   1.2294   1.3838
     1.4731   1.5775   1.8338   1.8778   2.1214   2.5646   2.6511   2.8562
     2.9456   3.4692   3.6315   3.6950   3.7477   3.8949   4.0061   4.1172
     4.1654   4.3700   4.5705   4.7821   4.9507   4.9913   5.1721   5.2352
     5.3869   5.5393   5.6263   5.6662   5.7763   5.9907   6.0703   6.1147
     6.1629   6.2186   6.2598   6.4060   6.4522   6.6096   6.6249   6.8008
     6.8809   6.9501   6.9989   7.0862   7.2033   7.3662   7.4767   7.6415
     7.8194   7.8732   7.9399   8.0617   8.1673   8.2105   8.2510   8.2665
     8.3517   8.4261   8.5185   8.5768   8.7132   8.7451   8.8853   8.9648
     9.0594   9.1236   9.2156   9.3092   9.4238   9.4805   9.4988   9.6481
     9.7124   9.7397   9.9278  10.0334  10.0635  10.1073  10.4756  10.7287
    10.8819  11.1255  11.4405  11.5583  12.2132  13.3662  14.4276  14.7264
    17.9797  18.1903  18.2418  18.2962  18.3598  18.7691  18.9206  19.0925
    19.1044  19.2613  19.3302  19.4652  19.6933  19.8247  19.8522  19.9957
    20.2049  20.3228  20.3868  20.4933  20.5428  20.5624  20.6295  20.6765

     occupation numbers 
     1.0000   1.0000   1.0000   1.0000   1.0000   1.0000   1.0000   1.0000
     1.0000   1.0000   1.0000   1.0000   1.0000   1.0000   1.0000   1.0000
     1.0000   1.0000   1.0000   1.0000   1.0000   1.0000   1.0000   1.0000
     1.0000   1.0000   1.0000   1.0000   1.0000   1.0000   1.0000   1.0000
     1.0000   1.0000   1.0000   1.0000   1.0000   1.0000   1.0000   1.0000
     1.0000   1.0000   1.0000   1.0000   1.0000   1.0000   1.0000   1.0000
     1.0000   1.0000   1.0000   1.0000   1.0000   1.0000   1.0000   1.0000
     1.0000   1.0000   1.0000   1.0000   1.0000   1.0000   1.0000   1.0000
     1.0000   1.0000   1.0000   1.0000   1.0000   1.0000   1.0000   1.0000
     1.0000   1.0000   1.0000   1.0000   1.0000   1.0000   1.0000   1.0000
     1.0000   1.0000   1.0000   1.0000   1.0000   1.0000   1.0000   1.0000
     1.0000   1.0000   1.0000   1.0000   1.0000   1.0000   1.0000   1.0000
     1.0000   1.0000   1.0000   1.0000   1.0000   1.0000   1.0000   1.0000
     1.0000   1.0000   1.0000   1.0000   1.0000   1.0000   1.0000   1.0000
     1.0000   1.0000   1.0000   1.0000   1.0000   1.0000   1.0000   1.0000
     1.0000   1.0000   1.0000   1.0000   1.0000   1.0000   1.0000   1.0000
     0.0000   0.0000   0.0000   0.0000   0.0000   0.0000   0.0000   0.0000
     0.0000   0.0000   0.0000   0.0000   0.0000   0.0000   0.0000   0.0000
     0.0000   0.0000   0.0000   0.0000   0.0000   0.0000   0.0000   0.0000

          k = 0.3333-0.3333 0.3333 ( 24303 PWs)   bands (ev):

    -8.0188  -7.4251  -6.9903  -6.8341  -6.4998  -6.2298  -6.0016  -5.5255
    -4.5800  -4.0440  -3.9485  -3.7358  -3.4411  -3.3744  -3.3323  -3.2187
    -3.0842  -2.8965  -2.6981  -2.4446  -2.1106  -1.9066  -1.8636  -1.7334
    -1.4943  -1.4865  -1.4317  -1.3656  -1.3560  -1.2517  -1.1784  -0.1156
     0.7225   0.8614   0.9348   0.9743   1.0539   1.4035   1.7061   1.7557
     1.8542   1.9319   2.0328   2.2169   2.5592   2.5869   2.6793   2.7073
     2.7166   2.7700   2.8943   3.1614   3.4751   3.9605   4.2153   4.3013
     4.7709   4.7761   4.8228   4.9974   5.0114   5.0514   5.1697   5.2395
     5.2584   5.4134   5.4278   5.5108   5.6558   5.7735   5.8161   6.4226
     6.6202   6.7119   6.9037   6.9178   6.9601   7.0292   7.0721   7.0798
     7.1511   7.1536   7.2216   7.2476   7.2655   7.3139   7.3442   7.3528
     7.3742   7.4475   7.7192   7.7213   7.8089   7.9090   7.9426   7.9468
     8.1300   8.1541   8.2562   8.2786   8.3520   8.3884   8.4055   8.4897
     8.6869   8.7215   8.9203   8.9968   9.0726   9.5116   9.5756   9.5900
     9.8456  10.3830  10.4236  10.5149  10.5373  10.8612  10.9168  11.1312
    11.2231  11.2476  11.2868  11.7169  11.7185  13.3470  14.5011  14.8071
    18.0372  18.2597  18.3191  18.5068  18.6422  18.7072  19.1294  19.3564
    19.4371  19.4853  19.5157  19.5500  19.5936  19.6224  19.6421  19.7096
    19.7459  19.7820  19.8965  19.8971  19.9751  19.9843  20.0378  20.1433

     occupation numbers 
     1.0000   1.0000   1.0000   1.0000   1.0000   1.0000   1.0000   1.0000
     1.0000   1.0000   1.0000   1.0000   1.0000   1.0000   1.0000   1.0000
     1.0000   1.0000   1.0000   1.0000   1.0000   1.0000   1.0000   1.0000
     1.0000   1.0000   1.0000   1.0000   1.0000   1.0000   1.0000   1.0000
     1.0000   1.0000   1.0000   1.0000   1.0000   1.0000   1.0000   1.0000
     1.0000   1.0000   1.0000   1.0000   1.0000   1.0000   1.0000   1.0000
     1.0000   1.0000   1.0000   1.0000   1.0000   1.0000   1.0000   1.0000
     1.0000   1.0000   1.0000   1.0000   1.0000   1.0000   1.0000   1.0000
     1.0000   1.0000   1.0000   1.0000   1.0000   1.0000   1.0000   1.0000
     1.0000   1.0000   1.0000   1.0000   1.0000   1.0000   1.0000   1.0000
     1.0000   1.0000   1.0000   1.0000   1.0000   1.0000   1.0000   1.0000
     1.0000   1.0000   1.0000   1.0000   1.0000   1.0000   1.0000   1.0000
     1.0000   1.0000   1.0000   1.0000   1.0000   1.0000   1.0000   1.0000
     1.0000   1.0000   1.0000   1.0000   1.0000   1.0000   1.0000   1.0000
     1.0000   1.0000   1.0000   1.0000   1.0000   1.0000   1.0000   1.0000
     1.0000   1.0000   1.0000   1.0000   1.0000   1.0000   1.0000   1.0000
     0.0000   0.0000   0.0000   0.0000   0.0000   0.0000   0.0000   0.0000
     0.0000   0.0000   0.0000   0.0000   0.0000   0.0000   0.0000   0.0000
     0.0000   0.0000   0.0000   0.0000   0.0000   0.0000   0.0000   0.0000

 ------ SPIN DOWN ----------


          k = 0.0000 0.0000 0.0000 ( 24207 PWs)   bands (ev):

    -8.5817  -7.0722  -6.2778  -6.2778  -6.1336  -6.1336  -5.8683  -4.9683
    -4.1356  -4.1356  -4.1185  -4.1185  -3.9947  -3.9866  -3.9866  -3.9531
    -3.8306  -3.8306  -3.3387  -2.9534  -2.6386  -2.6386  -2.0145  -0.3902
    -0.3902  -0.3450  -0.3019  -0.1116   0.1593   0.1593   0.2886   0.2886
     0.3657   0.6121   0.8046   0.8046   0.9838   0.9838   0.9899   1.0283
     1.0283   1.0585   1.4549   1.4549   3.1225   3.8404   3.8404   4.0342
     4.2103   4.2183   4.2183   4.2477   4.2483   4.2483   4.4238   4.4238
     4.4733   4.4733   4.5736   4.6405   4.6405   4.6459   4.6499   4.7549
     4.7549   4.8806   4.9475   4.9475   5.0755   5.2009   5.2009   5.2701
     5.3249   5.3249   5.3667   5.4416   5.4416   6.0357   6.0357   6.0697
     6.6101   6.6101   6.7103   6.9753   7.0506   7.0506   7.6226   8.2884
     8.2884   8.3961   8.4578   8.4578   8.6329   8.6329   8.7747   8.7886
     8.7886   8.8251   8.8751   8.8780   8.8780   9.2584   9.2584   9.2584
     9.6526   9.6526   9.8658   9.8806   9.8816   9.8816   9.9072   9.9384
     9.9384   9.9697   9.9779   9.9779  10.0912  10.0912  10.3122  10.3206
    10.3206  11.0434  12.4906  12.4937  12.4937  14.2819  15.9956  15.9956
    17.2571  17.3304  17.3304  17.4799  17.5663  17.5663  17.8261  17.8969
    17.8969  18.0153  18.0153  18.4140  18.9338  18.9338  18.9701  20.5752
    20.7496  20.7496  20.8141  20.8819  20.8819  20.9742  20.9743  20.9767

     occupation numbers 
     1.0000   1.0000   1.0000   1.0000   1.0000   1.0000   1.0000   1.0000
     1.0000   1.0000   1.0000   1.0000   1.0000   1.0000   1.0000   1.0000
     1.0000   1.0000   1.0000   1.0000   1.0000   1.0000   1.0000   1.0000
     1.0000   1.0000   1.0000   1.0000   1.0000   1.0000   1.0000   1.0000
     1.0000   1.0000   1.0000   1.0000   1.0000   1.0000   1.0000   1.0000
     1.0000   1.0000   1.0000   1.0000   1.0000   1.0000   1.0000   1.0000
     1.0000   1.0000   1.0000   1.0000   1.0000   1.0000   1.0000   1.0000
     1.0000   1.0000   1.0000   1.0000   1.0000   1.0000   1.0000   1.0000
     1.0000   1.0000   1.0000   1.0000   1.0000   1.0000   1.0000   1.0000
     1.0000   1.0000   1.0000   1.0000   1.0000   1.0000   1.0000   1.0000
     1.0000   1.0000   1.0000   1.0000   1.0000   1.0000   1.0000   1.0000
     1.0000   1.0000   1.0000   1.0000   1.0000   1.0000   1.0000   1.0000
     1.0000   1.0000   1.0000   1.0000   1.0000   1.0000   1.0000   1.0000
     1.0000   1.0000   1.0000   1.0000   1.0000   1.0000   1.0000   1.0000
     1.0000   1.0000   1.0000   1.0000   1.0000   1.0000   1.0000   1.0000
     1.0000   1.0000   1.0000   1.0000   1.0000   0.0000   1.0000   0.0000
     0.0000   0.0000   0.0000   0.0000   0.0000   0.0000   0.0000   0.0000
     0.0000   0.0000   0.0000   0.0000   0.0000   0.0000   0.0000   0.0000
     0.0000   0.0000   0.0000   0.0000   0.0000   0.0000   0.0000   0.0000

          k = 0.0000 0.0000 0.3333 ( 24280 PWs)   bands (ev):

    -8.3630  -7.5798  -6.6351  -6.0339  -5.8954  -5.8093  -5.4939  -5.2883
    -5.1329  -4.9612  -4.5033  -4.1211  -3.7964  -3.7890  -3.6690  -3.4197
    -3.1896  -3.1143  -2.9045  -2.5892  -2.4985  -2.3438  -2.2904  -1.7219
    -0.8274  -0.6891  -0.5483  -0.3113   0.1806   0.2457   0.3606   0.4147
     0.4930   0.5763   0.5816   0.6802   0.7535   0.7709   1.0543   1.5118
     2.0022   2.0198   2.1862   2.2281   2.4371   2.5034   2.5042   2.7651
     2.9727   3.0091   3.2183   3.2432   3.8788   3.9698   4.0657   4.0756
     4.2979   4.3839   4.5251   4.5731   5.0717   5.1376   5.1560   5.2185
     5.2278   5.6071   5.6194   5.7343   5.7800   6.0656   6.1075   6.2036
     6.2061   6.3260   6.4063   6.4752   6.5303   6.6261   6.6375   6.7650
     6.7763   6.9149   6.9222   6.9618   7.1654   7.1684   7.2067   7.2904
     7.4270   7.5034   7.7393   7.8008   7.8695   8.0685   8.1520   8.3036
     8.3238   8.4575   8.6852   8.7473   8.7914   9.1199   9.2371   9.3839
     9.3934   9.6507   9.6614   9.7170   9.8137   9.9174   9.9519   9.9564
     9.9968  10.0423  10.1254  10.1421  10.2069  10.2953  10.3073  10.4217
    10.4263  11.3039  11.7420  11.8008  12.1243  14.1675  15.6942  15.8929
    17.1962  17.3160  17.9571  18.2852  18.3486  18.4992  18.5282  18.6300
    18.8454  18.8472  19.0202  19.1047  19.2564  19.8417  19.8814  20.4476
    20.6569  20.6859  20.7907  20.7993  20.8337  20.8595  20.9199  20.9606

     occupation numbers 
     1.0000   1.0000   1.0000   1.0000   1.0000   1.0000   1.0000   1.0000
     1.0000   1.0000   1.0000   1.0000   1.0000   1.0000   1.0000   1.0000
     1.0000   1.0000   1.0000   1.0000   1.0000   1.0000   1.0000   1.0000
     1.0000   1.0000   1.0000   1.0000   1.0000   1.0000   1.0000   1.0000
     1.0000   1.0000   1.0000   1.0000   1.0000   1.0000   1.0000   1.0000
     1.0000   1.0000   1.0000   1.0000   1.0000   1.0000   1.0000   1.0000
     1.0000   1.0000   1.0000   1.0000   1.0000   1.0000   1.0000   1.0000
     1.0000   1.0000   1.0000   1.0000   1.0000   1.0000   1.0000   1.0000
     1.0000   1.0000   1.0000   1.0000   1.0000   1.0000   1.0000   1.0000
     1.0000   1.0000   1.0000   1.0000   1.0000   1.0000   1.0000   1.0000
     1.0000   1.0000   1.0000   1.0000   1.0000   1.0000   1.0000   1.0000
     1.0000   1.0000   1.0000   1.0000   1.0000   1.0000   1.0000   1.0000
     1.0000   1.0000   1.0000   1.0000   1.0000   1.0000   1.0000   1.0000
     1.0000   1.0000   1.0000   1.0000   1.0000   1.0000   1.0000   1.0000
     1.0000   1.0000   1.0000   1.0000   1.0000   1.0000   1.0000   1.0000
     1.0000   1.0000   1.0000   1.0000   1.0000   0.0000   1.0000   0.0000
     0.0000   0.0000   0.0000   0.0000   0.0000   0.0000   0.0000   0.0000
     0.0000   0.0000   0.0000   0.0000   0.0000   0.0000   0.0000   0.0000
     0.0000   0.0000   0.0000   0.0000   0.0000   0.0000   0.0000   0.0000

          k = 0.0000 0.3333 0.3333 ( 24236 PWs)   bands (ev):

    -8.1647  -7.4174  -7.2106  -6.5759  -5.9720  -5.6585  -5.3281  -4.9920
    -4.9757  -4.8391  -4.4738  -4.2405  -4.2051  -3.9014  -3.5255  -3.4987
    -2.7739  -2.3692  -2.3118  -2.3069  -2.1681  -2.1655  -2.0121  -1.8642
    -1.4678  -1.2977  -1.0641  -0.8797  -0.4969  -0.0099   0.0755   0.1397
     0.1999   0.4975   0.7149   1.1942   1.2013   1.3241   1.3998   1.4086
     1.4691   1.4967   1.9645   2.1051   2.1765   2.4418   2.7451   2.8601
     2.9915   3.5393   3.6662   3.6748   3.7996   3.8234   3.9996   4.0450
     4.1482   4.5963   4.6718   4.8452   5.0422   5.0462   5.1694   5.3236
     5.3698   5.6134   5.6444   5.7212   5.7714   5.9518   6.0359   6.0991
     6.1525   6.2577   6.3035   6.5131   6.5441   6.6159   6.6776   6.8698
     6.9304   6.9622   7.0563   7.0672   7.2604   7.3058   7.5322   7.7232
     7.9566   7.9963   8.0830   8.0940   8.1358   8.2462   8.2931   8.3427
     8.3693   8.4244   8.5655   8.6473   8.7297   8.7334   8.8856   8.9051
     9.0908   9.2171   9.2612   9.3412   9.4899   9.5030   9.6020   9.6565
     9.7422   9.8221   9.9303  10.0766  10.0889  10.1484  10.4502  10.7783
    11.0795  11.2490  11.5828  11.8492  12.2613  14.0461  15.6380  15.9357
    18.0464  18.2047  18.2548  18.3186  18.3711  18.8096  18.8769  18.9709
    19.1992  19.2357  19.4705  19.4980  19.7089  19.8209  19.9911  20.0227
    20.2077  20.4527  20.4871  20.5183  20.5832  20.6007  20.6286  20.6534

     occupation numbers 
     1.0000   1.0000   1.0000   1.0000   1.0000   1.0000   1.0000   1.0000
     1.0000   1.0000   1.0000   1.0000   1.0000   1.0000   1.0000   1.0000
     1.0000   1.0000   1.0000   1.0000   1.0000   1.0000   1.0000   1.0000
     1.0000   1.0000   1.0000   1.0000   1.0000   1.0000   1.0000   1.0000
     1.0000   1.0000   1.0000   1.0000   1.0000   1.0000   1.0000   1.0000
     1.0000   1.0000   1.0000   1.0000   1.0000   1.0000   1.0000   1.0000
     1.0000   1.0000   1.0000   1.0000   1.0000   1.0000   1.0000   1.0000
     1.0000   1.0000   1.0000   1.0000   1.0000   1.0000   1.0000   1.0000
     1.0000   1.0000   1.0000   1.0000   1.0000   1.0000   1.0000   1.0000
     1.0000   1.0000   1.0000   1.0000   1.0000   1.0000   1.0000   1.0000
     1.0000   1.0000   1.0000   1.0000   1.0000   1.0000   1.0000   1.0000
     1.0000   1.0000   1.0000   1.0000   1.0000   1.0000   1.0000   1.0000
     1.0000   1.0000   1.0000   1.0000   1.0000   1.0000   1.0000   1.0000
     1.0000   1.0000   1.0000   1.0000   1.0000   1.0000   1.0000   1.0000
     1.0000   1.0000   1.0000   1.0000   1.0000   1.0000   1.0000   1.0000
     1.0000   1.0000   1.0000   1.0000   1.0000   0.0000   1.0000   0.0000
     0.0000   0.0000   0.0000   0.0000   0.0000   0.0000   0.0000   0.0000
     0.0000   0.0000   0.0000   0.0000   0.0000   0.0000   0.0000   0.0000
     0.0000   0.0000   0.0000   0.0000   0.0000   0.0000   0.0000   0.0000

          k = 0.3333 0.3333 0.3333 ( 24303 PWs)   bands (ev):

    -7.9917  -7.2473  -6.9635  -6.9635  -6.2991  -6.2015  -6.2015  -5.4330
    -4.2123  -4.0179  -4.0179  -3.5372  -3.3628  -3.3628  -3.3200  -3.3200
    -3.2914  -2.8977  -2.6272  -2.6272  -1.9354  -1.9107  -1.9107  -1.5289
    -1.4463  -1.4463  -1.3764  -1.3764  -1.3252  -1.1390  -1.1390   0.1457
     0.8719   0.8719   0.9931   0.9931   1.0183   1.3034   1.8383   1.8383
     1.8837   1.9357   2.0229   2.0229   2.5786   2.5786   2.6185   2.7209
     2.7484   2.7484   3.2104   3.2104   3.5555   4.1164   4.3222   4.3222
     4.8571   4.9278   4.9278   4.9607   5.1033   5.1033   5.1843   5.3299
     5.3299   5.4285   5.5126   5.5126   5.5706   5.5706   5.6557   6.4262
     6.7085   6.7085   6.9427   7.0069   7.0069   7.0139   7.0952   7.0952
     7.2172   7.2172   7.2541   7.2698   7.2698   7.2887   7.3840   7.3840
     7.3865   7.5235   7.7679   7.7679   7.9370   7.9370   7.9836   8.0142
     8.2131   8.2131   8.3153   8.3153   8.3202   8.4457   8.5217   8.5217
     8.7072   8.7072   8.8552   9.0907   9.1581   9.5642   9.5642   9.8433
     9.8433  10.5032  10.5032  10.5205  10.6209  10.9810  10.9810  11.2984
    11.2984  11.3053  11.5733  11.6865  11.6865  13.8888  15.9482  15.9482
    18.0919  18.2498  18.2498  18.4660  18.6674  18.6674  19.2018  19.3810
    19.3810  19.5596  19.5596  19.6019  19.6309  19.6309  19.6595  19.7626
    19.7626  19.8915  19.9384  19.9384  20.0270  20.0270  20.0416  20.1703

     occupation numbers 
     1.0000   1.0000   1.0000   1.0000   1.0000   1.0000   1.0000   1.0000
     1.0000   1.0000   1.0000   1.0000   1.0000   1.0000   1.0000   1.0000
     1.0000   1.0000   1.0000   1.0000   1.0000   1.0000   1.0000   1.0000
     1.0000   1.0000   1.0000   1.0000   1.0000   1.0000   1.0000   1.0000
     1.0000   1.0000   1.0000   1.0000   1.0000   1.0000   1.0000   1.0000
     1.0000   1.0000   1.0000   1.0000   1.0000   1.0000   1.0000   1.0000
     1.0000   1.0000   1.0000   1.0000   1.0000   1.0000   1.0000   1.0000
     1.0000   1.0000   1.0000   1.0000   1.0000   1.0000   1.0000   1.0000
     1.0000   1.0000   1.0000   1.0000   1.0000   1.0000   1.0000   1.0000
     1.0000   1.0000   1.0000   1.0000   1.0000   1.0000   1.0000   1.0000
     1.0000   1.0000   1.0000   1.0000   1.0000   1.0000   1.0000   1.0000
     1.0000   1.0000   1.0000   1.0000   1.0000   1.0000   1.0000   1.0000
     1.0000   1.0000   1.0000   1.0000   1.0000   1.0000   1.0000   1.0000
     1.0000   1.0000   1.0000   1.0000   1.0000   1.0000   1.0000   1.0000
     1.0000   1.0000   1.0000   1.0000   1.0000   1.0000   1.0000   1.0000
     1.0000   1.0000   1.0000   1.0000   1.0000   0.0000   1.0000   0.0000
     0.0000   0.0000   0.0000   0.0000   0.0000   0.0000   0.0000   0.0000
     0.0000   0.0000   0.0000   0.0000   0.0000   0.0000   0.0000   0.0000
     0.0000   0.0000   0.0000   0.0000   0.0000   0.0000   0.0000   0.0000

          k =-0.3333 0.0000 0.3333 ( 24236 PWs)   bands (ev):

    -8.1500  -7.5327  -7.0817  -6.5634  -6.0180  -5.6665  -5.3614  -5.0324
    -4.9002  -4.7388  -4.5190  -4.2769  -4.1948  -4.0346  -3.5742  -3.3026
    -2.7702  -2.4086  -2.3583  -2.2744  -2.1673  -2.1261  -2.0844  -1.6556
    -1.5643  -1.2954  -1.0959  -0.9446  -0.5545  -0.0081   0.0887   0.1410
     0.3017   0.5188   0.9341   1.0573   1.2090   1.2311   1.2626   1.4033
     1.5037   1.6219   1.8861   1.9042   2.1480   2.6282   2.7035   2.9006
     2.9932   3.5147   3.6676   3.7154   3.7769   3.9220   4.0472   4.1474
     4.2293   4.4238   4.6060   4.8348   4.9719   5.0223   5.2043   5.2699
     5.4281   5.5800   5.6516   5.7109   5.8222   6.0224   6.0857   6.1478
     6.1927   6.2494   6.2979   6.4389   6.4859   6.6337   6.6562   6.8204
     6.9045   6.9755   7.0376   7.1348   7.2568   7.4210   7.5342   7.6800
     7.9087   7.9231   7.9672   8.0772   8.1955   8.2326   8.2760   8.3010
     8.3854   8.4632   8.5732   8.6042   8.7587   8.7741   8.9180   8.9908
     9.1035   9.1574   9.2605   9.3497   9.4697   9.5239   9.5270   9.6892
     9.7492   9.7968   9.9570  10.0638  10.0985  10.1483  10.5219  10.9403
    10.9738  11.1992  11.5032  11.7258  12.3637  14.2753  15.5335  15.8464
    18.0156  18.2169  18.2705  18.3251  18.3926  18.7918  18.9459  19.1223
    19.1324  19.2898  19.3949  19.4982  19.7237  19.8724  19.8812  20.0404
    20.2371  20.3549  20.4172  20.5122  20.5635  20.5877  20.6525  20.7025

     occupation numbers 
     1.0000   1.0000   1.0000   1.0000   1.0000   1.0000   1.0000   1.0000
     1.0000   1.0000   1.0000   1.0000   1.0000   1.0000   1.0000   1.0000
     1.0000   1.0000   1.0000   1.0000   1.0000   1.0000   1.0000   1.0000
     1.0000   1.0000   1.0000   1.0000   1.0000   1.0000   1.0000   1.0000
     1.0000   1.0000   1.0000   1.0000   1.0000   1.0000   1.0000   1.0000
     1.0000   1.0000   1.0000   1.0000   1.0000   1.0000   1.0000   1.0000
     1.0000   1.0000   1.0000   1.0000   1.0000   1.0000   1.0000   1.0000
     1.0000   1.0000   1.0000   1.0000   1.0000   1.0000   1.0000   1.0000
     1.0000   1.0000   1.0000   1.0000   1.0000   1.0000   1.0000   1.0000
     1.0000   1.0000   1.0000   1.0000   1.0000   1.0000   1.0000   1.0000
     1.0000   1.0000   1.0000   1.0000   1.0000   1.0000   1.0000   1.0000
     1.0000   1.0000   1.0000   1.0000   1.0000   1.0000   1.0000   1.0000
     1.0000   1.0000   1.0000   1.0000   1.0000   1.0000   1.0000   1.0000
     1.0000   1.0000   1.0000   1.0000   1.0000   1.0000   1.0000   1.0000
     1.0000   1.0000   1.0000   1.0000   1.0000   1.0000   1.0000   1.0000
     1.0000   1.0000   1.0000   1.0000   1.0000   0.0000   1.0000   0.0000
     0.0000   0.0000   0.0000   0.0000   0.0000   0.0000   0.0000   0.0000
     0.0000   0.0000   0.0000   0.0000   0.0000   0.0000   0.0000   0.0000
     0.0000   0.0000   0.0000   0.0000   0.0000   0.0000   0.0000   0.0000

          k = 0.3333-0.3333 0.3333 ( 24303 PWs)   bands (ev):

    -7.9659  -7.3854  -6.9641  -6.8056  -6.4714  -6.1999  -5.9566  -5.4791
    -4.5182  -4.0205  -3.9261  -3.6960  -3.4168  -3.3500  -3.3157  -3.1843
    -3.0538  -2.8691  -2.6579  -2.3837  -2.0645  -1.8799  -1.8324  -1.7111
    -1.4769  -1.4700  -1.4079  -1.3422  -1.3320  -1.1856  -1.0914  -0.0005
     0.7503   0.8858   0.9638   0.9993   1.0981   1.4501   1.7285   1.7917
     1.8760   1.9665   2.0634   2.2769   2.5983   2.6053   2.7020   2.7293
     2.7452   2.8231   2.9389   3.2539   3.5168   4.0216   4.2619   4.3303
     4.7936   4.8167   4.8747   5.0286   5.0332   5.0699   5.2168   5.2646
     5.2860   5.4404   5.4617   5.5444   5.7132   5.8249   5.8696   6.5087
     6.6491   6.7462   6.9304   6.9471   6.9757   7.0526   7.0877   7.1180
     7.1777   7.1803   7.2427   7.2778   7.2871   7.3538   7.3750   7.3809
     7.4042   7.4837   7.7579   7.7605   7.8531   7.9354   7.9667   7.9759
     8.1542   8.1810   8.2777   8.3118   8.3866   8.4208   8.4317   8.5363
     8.7211   8.7542   8.9771   9.0305   9.1856   9.5604   9.6139   9.6930
     9.9404  10.4079  10.5395  10.5409  10.6102  10.9630  10.9640  11.2188
    11.2478  11.3146  11.4999  11.7546  11.8230  14.2588  15.6135  15.9526
    18.0680  18.2818  18.3469  18.5416  18.6682  18.7557  19.1636  19.3786
    19.4528  19.4997  19.5346  19.5686  19.6297  19.6468  19.6723  19.7300
    19.7619  19.8099  19.9237  19.9283  19.9958  20.0020  20.0718  20.1778

     occupation numbers 
     1.0000   1.0000   1.0000   1.0000   1.0000   1.0000   1.0000   1.0000
     1.0000   1.0000   1.0000   1.0000   1.0000   1.0000   1.0000   1.0000
     1.0000   1.0000   1.0000   1.0000   1.0000   1.0000   1.0000   1.0000
     1.0000   1.0000   1.0000   1.0000   1.0000   1.0000   1.0000   1.0000
     1.0000   1.0000   1.0000   1.0000   1.0000   1.0000   1.0000   1.0000
     1.0000   1.0000   1.0000   1.0000   1.0000   1.0000   1.0000   1.0000
     1.0000   1.0000   1.0000   1.0000   1.0000   1.0000   1.0000   1.0000
     1.0000   1.0000   1.0000   1.0000   1.0000   1.0000   1.0000   1.0000
     1.0000   1.0000   1.0000   1.0000   1.0000   1.0000   1.0000   1.0000
     1.0000   1.0000   1.0000   1.0000   1.0000   1.0000   1.0000   1.0000
     1.0000   1.0000   1.0000   1.0000   1.0000   1.0000   1.0000   1.0000
     1.0000   1.0000   1.0000   1.0000   1.0000   1.0000   1.0000   1.0000
     1.0000   1.0000   1.0000   1.0000   1.0000   1.0000   1.0000   1.0000
     1.0000   1.0000   1.0000   1.0000   1.0000   1.0000   1.0000   1.0000
     1.0000   1.0000   1.0000   1.0000   1.0000   1.0000   1.0000   1.0000
     1.0000   1.0000   1.0000   1.0000   1.0000   0.0000   1.0000   0.0000
     0.0000   0.0000   0.0000   0.0000   0.0000   0.0000   0.0000   0.0000
     0.0000   0.0000   0.0000   0.0000   0.0000   0.0000   0.0000   0.0000
     0.0000   0.0000   0.0000   0.0000   0.0000   0.0000   0.0000   0.0000

     highest occupied, lowest unoccupied level (ev):    14.9014   13.8888

!    total energy              =    -724.69357840 Ry
     Harris-Foulkes estimate   =    -724.69357753 Ry
     estimated scf accuracy    <       0.00000091 Ry

     The total energy is the sum of the following terms:

     one-electron contribution =     232.35623597 Ry
     hartree contribution      =      69.45985302 Ry
     xc contribution           =    -226.43189544 Ry
     ewald contribution        =    -800.07777194 Ry

     total magnetization       =     2.00 Bohr mag/cell
     absolute magnetization    =     2.20 Bohr mag/cell

     convergence has been achieved in  10 iterations

     Writing output data file di.save
 
     init_run     :      1.29s CPU      1.69s WALL (       1 calls)
     electrons    :     28.09s CPU     28.55s WALL (       1 calls)

     Called by init_run:
     wfcinit      :      0.76s CPU      0.85s WALL (       1 calls)
     wfcinit:atom :      0.01s CPU      0.01s WALL (       2 calls)
     wfcinit:wfcr :      0.72s CPU      0.79s WALL (       2 calls)
     potinit      :      0.08s CPU      0.10s WALL (       1 calls)

     Called by electrons:
     c_bands      :     26.36s CPU     26.78s WALL (      10 calls)
     sum_band     :      1.16s CPU      1.18s WALL (      10 calls)
     v_of_rho     :      0.40s CPU      0.41s WALL (      11 calls)
     v_h          :      0.01s CPU      0.01s WALL (      11 calls)
     v_xc         :      0.39s CPU      0.40s WALL (      11 calls)
     mix_rho      :      0.07s CPU      0.08s WALL (      10 calls)

     Called by c_bands:
     init_us_2    :      0.19s CPU      0.19s WALL (      42 calls)
     cegterg      :     23.70s CPU     24.10s WALL (      20 calls)

     Called by sum_band:

     Called by *egterg:
     h_psi        :      9.43s CPU      9.58s WALL (     136 calls)
     g_psi        :      0.05s CPU      0.05s WALL (     114 calls)
     cdiaghg      :     10.06s CPU     10.11s WALL (     134 calls)
     cegterg:over :      1.86s CPU      1.87s WALL (     114 calls)
     cegterg:upda :      1.43s CPU      1.44s WALL (     114 calls)
     cegterg:last :      0.51s CPU      0.52s WALL (      20 calls)

     Called by h_psi:
     h_psi:pot    :      9.32s CPU      9.46s WALL (     136 calls)
     h_psi:calbec :      2.02s CPU      2.04s WALL (     136 calls)
     vloc_psi     :      5.20s CPU      5.29s WALL (     136 calls)
     add_vuspsi   :      2.11s CPU      2.13s WALL (     136 calls)

     General routines
     calbec       :      2.02s CPU      2.04s WALL (     136 calls)
     fft          :      0.13s CPU      0.34s WALL (     228 calls)
     fftw         :      5.53s CPU      5.54s WALL (   20498 calls)
 
     Parallel routines
     fft_scatter  :      1.68s CPU      1.65s WALL (   20726 calls)
 
     PWSCF        :    32.18s CPU        35.73s WALL

 
   This run was terminated on:  10:32: 0  12May2020            

=------------------------------------------------------------------------------=
   JOB DONE.
=------------------------------------------------------------------------------=
